TITLE = "Visualization of CSM meshes"
VARIABLES = "x"  "y"  "z" 

ZONE
T="Zone Title"
DATAPACKING=Block
ZONETYPE=FEQUADRILATERAL
N=11189 E=12257
-0.106918674	0.776054818	0.21702995	0.0200239188	0.472805043
3.59135484	1.17221503	1.61200526	2.53166747
0.970288223	3.04688171	1.38499274	2.05443066
5.49970295	3.85546824	4.73888443	3.72322341
5.14226007	4.30485937	7.0036844	5.87867406
6.44168158	5.68932064	6.7227458	6.16036618
8.50447382	7.86950015	7.43659231	8.18698696
10.0052629	9.18173096	9.85898792	8.84310242
9.93212543	9.52035946	11.5060524	10.7556577
10.3804602	11.1308551	13.0068418	11.8484756
12.4276587	11.6772639	12.7172503	12.1380671
14.5076318	13.8212903	13.414066	14.164461
16.0084212	15.2580265	14.8828292	15.6332237
17.5092106	16.2722009	16.8907057	16.1403111
17.199958	16.5814533	19.01	18.1989708
17.8540908	18.6044853	20.5107894	19.7603951
19.3851976	20.1355924	22.0115788	20.6409119
21.326245	20.5758506	21.6689119	20.9835783
23.5123682	22.6030394	22.3073092	23.0577041
25.0131577	24.0524471	24.5925265	23.7824076
24.8028421	24.3224868	26.5139471	25.7635528
25.3883553	26.1387501	28.0147365	26.5820144
27.2983751	26.5479808	27.6565557	26.9401946
29.515527	28.5688406	28.2917885	29.0421838
31.0163153	30.0291198	30.542712	29.7723235
30.7795135	30.2859159	32.5171059	31.6826601
32.3490048	31.3494877	32.4330554	32.0158325
34.0178941	33.2675	32.8923031	33.6426969
36.5192106	34.3225589	35.2493408	36.1761223
34.1702265	36.3476665	34.7859498	35.7127318
37.7758277	37.2390833	36.8905924	37.5417922
-0.0969704575	0.00915089501	0.784204995	0.847029939
0.299756783	0.226107064	0.219266984	0.0294752707
-0.104215289	0.0224382548	0.252682347	0.114748697
-0.0702236873	0.056342095	0.481493959	0.778030681
0.47491607	0.808375833	0.548931686	0.507219462
3.59356399	3.61059289	1.23590357	1.66694994
2.56851258	1.61831464	1.17952848	2.21488844
2.87451688	2.53589848	2.76763515	2.30763025
2.53372572	2.3211022	2.77833528	2.54246055
1.17398805	0.978035644	0.972166446	1.20121785
1.03775596	1.00101203	3.59189042	3.22883844
3.14567444	3.0747826	3.60011558	3.15658106
1.61353486	1.39182986	1.38665028	1.90872675
1.97217282	1.63702626	1.44453314	1.41210656
2.10042811	1.99193925	5.49981053	5.50063967
3.87083277	4.74420184	3.85723258	4.73949505
3.85589597	3.72520455	3.72370371	3.86246503
3.74047587	3.73107993	5.1425309	4.73903247
5.49972904	5.14232573	5.50012953	5.14461847
4.74130591	5.14333406	4.30597245	4.30512922
4.31455239	4.30927344	7.00368443	7.00368446
5.87906724	6.44173078	5.87871922	6.44168724
5.87868501	5.68939256	5.68933808	5.87885312
5.68994681	5.6896058	6.72274653	6.44168296
7.00368442	6.72274598	7.00368445	6.722752
6.441704	6.72274864	6.16038525	6.16037081
6.16053209	6.16044175	8.50447384	8.50447388
7.86950021	7.86950017	7.86950016	7.43659233
7.43659232	7.86950019	7.43659237	7.43659235
8.18698698	8.50447383	8.18698697	8.50447386
8.18698702	8.186987	10.005263	10.005263
9.18173102	9.85898798	9.85898794	9.18173099
9.18173097	8.84310245	8.84310244	9.181731
8.84310248	8.84310247	9.93212546	9.85898793
10.005263	9.93212545	10.005263	9.93212549
9.85898796	9.93212548	9.52035948	9.52035947
9.52035951	9.5203595	11.5060524	11.5060524
10.7556577	10.7556577	10.7556577	10.3804603
10.3804603	10.7556577	10.3804603	10.3804603
11.1308551	11.5060524	11.1308551	11.5060524
11.1308551	11.1308551	13.0068418	13.0068418
11.8484756	12.4276588	11.8484756	12.4276588
11.8484756	11.677264	11.677264	11.8484756
11.677264	11.677264	12.7172503	12.4276587
13.0068418	12.7172503	13.0068418	12.7172504
12.4276588	12.7172503	12.1380672	12.1380671
12.1380672	12.1380672	14.5076318	14.5076318
13.8212904	13.8212903	13.8212903	13.414066
13.414066	13.8212904	13.414066	13.414066
14.164461	14.5076318	14.164461	14.5076318
14.1644611	14.1644611	16.0084212	16.0084212
15.2580265	15.2580265	15.2580265	14.8828292
14.8828292	15.2580265	14.8828293	14.8828293
15.6332237	16.0084212	15.6332237	16.0084212
15.6332238	15.6332238	17.5092106	17.5092106
16.272201	16.8907057	16.2722009	16.8907057
16.2722009	16.1403111	16.1403111	16.272201
16.1403111	16.1403111	17.1999581	16.8907057
17.5092106	17.199958	17.1999581	16.8907057
17.5092106	17.1999581	16.5814533	16.5814533
16.5814534	16.5814534	19.01	19.0100001
18.1989709	18.1989708	18.1989708	17.8540908
17.8540908	18.1989709	17.8540909	17.8540908
18.6044853	19.01	18.6044853	19.01
18.6044854	18.6044853	20.5107894	20.5107895
19.7603952	19.7603952	19.7603951	19.3851976
19.3851976	19.7603952	19.3851977	19.3851977
20.1355925	20.5107894	20.1355924	20.5107895
20.1355925	20.1355925	22.0115788	22.0115789
20.6409119	21.3262451	20.6409119	21.326245
20.6409119	20.5758507	20.5758506	20.6409119
20.5758507	20.5758507	21.6689119	21.326245
22.0115788	21.6689119	22.0115789	21.6689119
21.3262451	21.6689119	20.9835783	20.9835783
20.9835784	20.9835784	23.5123683	23.5123683
22.6030395	22.6030395	22.6030395	22.3073092
22.3073092	22.6030395	22.3073092	22.3073092
23.0577041	23.5123683	23.0577041	23.5123683
23.0577041	23.0577041	25.0131577	25.0131577
24.0524472	24.5925266	24.5925265	24.0524471
24.0524471	23.7824076	23.7824076	24.0524471
23.7824076	23.7824076	24.8028421	24.5925265
25.0131577	24.8028421	25.0131577	24.8028421
24.5925265	24.8028421	24.3224868	24.3224868
24.3224868	24.3224868	26.5139471	26.5139471
25.7635528	25.7635528	25.7635528	25.3883553
25.3883553	25.7635528	25.3883553	25.3883553
26.1387501	26.5139471	26.1387501	26.5139471
26.1387501	26.1387501	28.0147365	28.0147365
26.5820145	27.2983751	26.5820145	27.2983751
26.5820144	26.5479808	26.5479808	26.5820145
26.5479808	26.5479808	27.6565558	27.2983751
28.0147365	27.6565558	28.0147365	27.6565558
27.2983751	27.6565558	26.9401946	26.9401946
26.9401947	26.9401947	29.5155271	29.5155271
28.5688407	28.5688406	28.5688406	28.2917886
28.2917886	28.5688407	28.2917886	28.2917886
29.0421838	29.515527	29.0421838	29.5155271
29.0421839	29.0421839	31.0163153	31.0163154
30.0291198	30.542712	30.542712	30.0291198
30.0291198	29.7723235	29.7723235	30.0291198
29.7723236	29.7723236	30.7795135	30.542712
31.0163153	30.7795135	31.0163153	30.7795136
30.542712	30.7795136	30.2859159	30.2859159
30.2859159	30.2859159	32.5171059	32.5171059
31.6826601	32.3490049	32.3490049	31.6826601
31.6826601	31.3494877	31.3494877	31.6826601
31.3494877	31.3494877	32.4330554	32.3490049
32.5171059	32.4330554	32.5171059	32.4330554
32.3490049	32.4330554	32.0158325	32.0158325
32.0158325	32.0158325	34.0178942	34.0178942
33.2675	33.2675	33.2675	32.8923032
32.8923031	33.2675	32.8923032	32.8923032
33.6426969	34.0178941	33.6426969	34.0178942
33.6426969	33.6426969	36.5192106	36.5192106
34.3225589	35.2493409	36.1761224	34.3225589
36.1761223	35.2493408	34.3225589	34.1702265
34.1702265	34.3225589	34.1702265	34.1702265
36.3476665	36.1761223	36.5192106	36.3476665
36.5192106	36.3476665	36.1761224	36.3476665
35.2493408	34.7859499	34.7859498	35.7127318
35.7127318	35.2493408	34.7859499	34.7859499
35.7127318	35.7127318	37.7746415	37.6867638
37.2279504	37.2389351	37.2390266	36.8905738
36.8905853	37.238686	36.8892008	36.8905427
37.5412918	37.7753739	37.5416008	37.7726492
37.5042184	37.5404513	0.0420713692	0.925361056
0.379160244	0.333795835	0.179137396	0.00109253939
0.134856731	0.631461076	0.883492653	0.58698332
3.63182477	1.72758919	2.60917637	1.69517719
1.38297702	1.52052576	1.3061929	1.15859866
3.10557516	2.58744136	3.62047622	3.08911637
2.15119281	2.12405881	5.50167342	3.88778967
4.75007031	3.87872611	3.75951636	3.74933911
5.14722126	4.74693358	5.50112087	5.14583006
4.32524997	4.31953206	7.00368448	5.87950114
6.44178503	5.87926922	5.69063783	5.69026848
6.7227588	6.44175603	7.00368447	6.72275517
6.16071515	6.16061731	8.50447389	7.86950023
7.86950022	7.43659238	7.43659238	8.18698704
8.50447389	8.18698703	10.005263	9.18173104
9.858988	9.18173103	8.8431025	8.84310249
9.93212551	9.85898799	10.005263	9.9321255
9.52035953	9.52035952	11.5060524	10.7556577
10.7556577	10.3804603	10.3804603	11.1308551
11.5060524	11.1308551	13.0068419	11.8484756
12.4276588	11.8484756	11.677264	11.677264
12.7172504	12.4276588	13.0068418	12.7172504
12.1380672	12.1380672	14.5076318	13.8212904
13.8212904	13.414066	13.414066	14.1644611
14.5076318	14.1644611	16.0084212	15.2580265
15.2580265	14.8828293	14.8828293	15.6332238
16.0084212	15.6332238	17.5092107	16.272201
16.8907057	16.272201	16.1403111	16.1403111
17.1999581	16.8907057	17.5092107	17.1999581
16.5814534	16.5814534	19.0100001	18.1989709
18.1989709	17.8540909	17.8540909	18.6044854
19.0100001	18.6044854	20.5107895	19.7603952
19.7603952	19.3851977	19.3851977	20.1355925
20.5107895	20.1355925	22.0115789	20.6409119
21.3262451	20.6409119	20.5758507	20.5758507
21.668912	21.3262451	22.0115789	21.668912
20.9835784	20.9835784	23.5123683	22.6030395
22.6030395	22.3073092	22.3073092	23.0577041
23.5123683	23.0577041	25.0131577	24.0524472
24.5925266	24.0524472	23.7824077	23.7824076
24.8028421	24.5925266	25.0131577	24.8028421
24.3224868	24.3224868	26.5139471	25.7635529
25.7635529	25.3883554	25.3883553	26.1387502
26.5139471	26.1387502	28.0147366	26.5820145
27.2983752	26.5820145	26.5479808	26.5479808
27.6565558	27.2983752	28.0147366	27.6565558
26.9401947	26.9401947	29.5155271	28.5688407
28.5688407	28.2917886	28.2917886	29.0421839
29.5155271	29.0421839	31.0163154	30.0291198
30.542712	30.0291198	29.7723236	29.7723236
30.7795136	30.542712	31.0163154	30.7795136
30.2859159	30.2859159	32.5171059	31.6826601
32.3490049	31.6826601	31.3494878	31.3494877
32.4330554	32.3490049	32.5171059	32.4330554
32.0158325	32.0158325	34.0178942	33.2675
33.2675	32.8923032	32.8923032	33.6426969
34.0178942	33.6426969	36.5192106	34.3225589
35.2493409	36.1761224	34.3225589	34.1702265
34.1702265	36.3476665	36.1761224	36.5192106
36.3476665	35.2493409	34.7859499	34.7859499
35.7127318	35.7127318	37.7735709	37.2388012
37.2385969	36.8905571	36.8905316	37.5408401
37.7719358	37.5401503	0.0870064592	0.134542633
0.970575844	1.01790998	0.479673083	0.06412016
0.257284223	0.148925954	0.574315069	0.428235583
0.411542992	0.307370001	0.110558952	0.277815362
0.214065532	0.624272513	0.445248776	0.947612373
0.72633966	0.994127776	0.729807416	0.791298454
3.64408037	3.65691042	1.799235	2.657221
1.76259176	2.63264858	1.74481482	1.34676575
1.32615981	1.78082425	1.38924038	1.36789975
3.12334943	2.62072763	3.63785606	3.11432232
3.65046419	3.14195683	2.64487502	3.13260787
2.18049553	2.1656134	2.21117175	2.19575902
5.50227012	5.50289479	3.90782438	4.75700395
3.89757763	4.75345774	3.89260657	3.77050703
3.76492514	3.90267608	3.78201286	3.77623196
5.14872366	4.75173735	5.50196707	5.14796063
5.50258094	5.15029647	4.75522222	5.14950624
4.33142489	4.3282888	4.33788924	4.33464134
7.00368448	7.00368449	5.88001377	6.44184912
5.87975159	6.44181634	5.87962439	5.6910367
5.69083412	5.87988204	5.69145426	5.69124446
6.72276272	6.44180044	7.00368448	6.72276073
7.00368449	6.72276681	6.44183265	6.72276476
6.16082081	6.16076715	6.16093142	6.16087585
8.5044739	8.5044739	7.86950023	7.86950023
7.86950023	7.43659239	7.43659239	7.86950023
7.43659239	7.43659239	8.18698704	8.5044739
8.18698704	8.5044739	8.18698704	8.18698704
10.005263	10.005263	9.18173105	9.858988
9.858988	9.18173104	9.18173104	8.8431025
8.8431025	9.18173105	8.84310251	8.84310251
9.93212551	9.858988	10.005263	9.93212551
10.005263	9.93212552	9.858988	9.93212552
9.52035954	9.52035953	9.52035954	9.52035954
11.5060524	11.5060524	10.7556577	10.7556577
10.7556577	10.3804603	10.3804603	10.7556577
10.3804603	10.3804603	11.1308551	11.5060524
11.1308551	11.5060524	11.1308551	11.1308551
13.0068419	13.0068419	11.8484756	12.4276588
11.8484756	12.4276588	11.8484756	11.677264
11.677264	11.8484756	11.677264	11.677264
12.7172504	12.4276588	13.0068419	12.7172504
13.0068419	12.7172504	12.4276588	12.7172504
12.1380672	12.1380672	12.1380672	12.1380672
14.5076318	14.5076318	13.8212904	13.8212904
13.8212904	13.414066	13.414066	13.8212904
13.414066	13.414066	14.1644611	14.5076318
14.1644611	14.5076318	14.1644611	14.1644611
16.0084213	16.0084213	15.2580265	15.2580265
15.2580265	14.8828293	14.8828293	15.2580265
14.8828293	14.8828293	15.6332238	16.0084213
15.6332238	16.0084213	15.6332238	15.6332238
17.5092107	17.5092107	16.272201	16.8907057
16.272201	16.8907057	16.272201	16.1403112
16.1403111	16.272201	16.1403112	16.1403112
17.1999581	16.8907057	17.5092107	17.1999581
17.1999581	16.8907057	17.5092107	17.1999581
16.5814534	16.5814534	16.5814534	16.5814534
19.0100001	19.0100001	18.1989709	18.1989709
18.1989709	17.8540909	17.8540909	18.1989709
17.8540909	17.8540909	18.6044854	19.0100001
18.6044854	19.0100001	18.6044854	18.6044854
20.5107895	20.5107895	19.7603952	19.7603952
19.7603952	19.3851977	19.3851977	19.7603952
19.3851977	19.3851977	20.1355925	20.5107895
20.1355925	20.5107895	20.1355925	20.1355925
22.0115789	22.0115789	20.6409119	21.3262451
20.6409119	21.3262451	20.6409119	20.5758507
20.5758507	20.6409119	20.5758507	20.5758507
21.668912	21.3262451	22.0115789	21.668912
22.0115789	21.668912	21.3262451	21.668912
20.9835784	20.9835784	20.9835784	20.9835784
23.5123683	23.5123683	22.6030395	22.6030395
22.6030395	22.3073092	22.3073092	22.6030395
22.3073092	22.3073092	23.0577041	23.5123683
23.0577041	23.5123683	23.0577041	23.0577041
25.0131577	25.0131577	24.0524472	24.5925266
24.5925266	24.0524472	24.0524472	23.7824077
23.7824077	24.0524472	23.7824077	23.7824077
24.8028422	24.5925266	25.0131577	24.8028422
25.0131577	24.8028422	24.5925266	24.8028422
24.3224868	24.3224868	24.3224868	24.3224868
26.5139472	26.5139472	25.7635529	25.7635529
25.7635529	25.3883554	25.3883554	25.7635529
25.3883554	25.3883554	26.1387502	26.5139471
26.1387502	26.5139472	26.1387502	26.1387502
28.0147366	28.0147366	26.5820145	27.2983752
26.5820145	27.2983752	26.5820145	26.5479808
26.5479808	26.5820145	26.5479808	26.5479808
27.6565558	27.2983752	28.0147366	27.6565558
28.0147366	27.6565558	27.2983752	27.6565558
26.9401947	26.9401947	26.9401947	26.9401947
29.5155271	29.5155271	28.5688407	28.5688407
28.5688407	28.2917886	28.2917886	28.5688407
28.2917886	28.2917886	29.0421839	29.5155271
29.0421839	29.0421839	29.5155271	29.0421839
31.0163154	31.0163154	30.0291198	30.542712
30.542712	30.0291198	30.0291198	29.7723236
29.7723236	30.0291198	29.7723236	29.7723236
30.7795136	30.542712	31.0163154	30.7795136
31.0163154	30.7795136	30.542712	30.7795136
30.2859159	30.2859159	30.2859159	30.2859159
32.5171059	32.5171059	31.6826601	32.3490049
32.3490049	31.6826601	31.6826601	31.3494878
31.3494878	31.6826601	31.3494878	31.3494878
32.4330554	32.3490049	32.5171059	32.4330554
32.5171059	32.4330554	32.3490049	32.4330554
32.0158325	32.0158325	32.0158325	32.0158325
34.0178942	34.0178942	33.2675001	33.2675001
33.2675	32.8923032	32.8923032	33.2675001
32.8923032	32.8923032	33.6426969	34.0178942
33.6426969	34.0178942	33.6426969	33.6426969
36.5192106	36.5192106	34.3225589	35.2493409
36.1761224	34.3225589	36.1761224	35.2493409
34.3225589	34.1702265	34.1702265	34.3225589
34.1702265	34.1702265	36.3476665	36.1761224
36.5192106	36.3476665	36.5192106	36.3476665
36.1761224	36.3476665	35.2493409	34.7859499
34.7859499	35.7127318	35.7127318	35.2493409
34.7859499	34.7859499	35.7127318	35.7127318
37.7748043	37.7755683	37.2390509	37.2389554
37.2388845	36.8905764	36.8905675	37.2390164
36.8905884	36.890584	37.5413605	37.7742368
37.5411211	37.7752923	37.5416828	37.5415664
0.179264348	0.231516673	0.200743108	1.06091929
1.08135645	1.11045889	0.156861002	0.356533578
0.246271011	0.673037394	0.526601947	0.511039345
1.03950055	0.823048823	1.07118783	0.548930078
0.19004344	0.537819	1.09608192	0.580748761
0.216284485	0.565026227	3.66856821	3.67410776
3.68199606	1.8708808	2.70526562	1.83253022
1.84835144	2.69015776	2.67954829	1.81594912
1.42783418	1.40861437	1.84047951	1.44617317
1.43704851	3.15886412	2.66842924	3.66276261
3.15044425	1.85975101	1.47228784	1.45938687
3.67135153	3.16689811	2.68487896	3.16290075
3.67809914	3.1783385	2.69780215	3.17268681
2.23904515	2.22516413	2.25229002	2.27115068
2.26183328	2.24569996	5.50346238	5.50373209
5.50411615	3.92785909	4.76393757	3.91713491
3.92155908	4.76175726	4.76022614	3.91249825
3.79246743	3.78726103	3.91935781	3.79743522
3.79496347	5.15172557	4.75862148	5.50317972
5.15101388	3.92474681	3.80450935	3.80101464
5.50359789	5.15240465	4.76099544	5.15206677
5.50392642	5.15337166	4.76286047	5.15289395
4.34376296	4.34083784	4.34655403	4.3505285
4.34856506	4.34516532	7.00368448	7.00368448
7.00368448	5.8805264	6.44191319	5.880252
5.8803652	6.44189304	6.44187889	5.88013336
5.69183367	5.69164472	5.88030888	5.69201395
5.69192425	6.72277053	6.44186406	7.00368449
6.72276868	5.88044676	5.69227068	5.69214385
7.00368448	6.7227723	6.441886	6.72277142
7.00368448	6.72277482	6.44190324	6.72277357
6.16103193	6.16098188	6.16107968	6.16114768
6.16111409	6.16105592	8.5044739	8.5044739
8.50447389	7.86950023	7.86950023	7.86950023
7.86950023	7.43659239	7.43659239	7.86950023
7.43659239	7.43659239	8.18698704	8.5044739
8.18698704	7.86950023	7.43659238	7.43659239
8.18698704	8.5044739	8.18698704	8.5044739
8.18698704	8.18698704	10.005263	10.005263
10.005263	9.18173104	9.858988	9.858988
9.858988	9.18173104	9.18173104	9.18173105
8.84310251	8.84310251	9.18173104	8.8431025
8.8431025	9.93212551	9.858988	10.005263
9.93212552	9.18173104	8.8431025	8.8431025
9.93212551	9.858988	10.005263	9.93212551
10.005263	9.93212551	9.858988	9.93212551
9.52035954	9.52035954	9.52035953	9.52035953
9.52035953	9.52035954	11.5060524	11.5060524
11.5060524	10.7556577	10.7556577	10.7556577
10.7556577	10.3804603	10.3804603	10.7556577
10.3804603	10.3804603	11.1308551	11.5060524
11.1308551	10.7556577	10.3804603	10.3804603
11.5060524	11.1308551	11.1308551	11.5060524
11.1308551	11.1308551	13.0068419	13.0068419
13.0068419	11.8484756	12.4276588	11.8484756
11.8484756	12.4276588	12.4276588	11.8484756
11.677264	11.677264	11.8484756	11.677264
11.677264	12.7172504	12.4276588	13.0068419
12.7172504	11.8484756	11.677264	11.677264
13.0068419	12.7172504	12.4276588	12.7172504
13.0068419	12.7172504	12.4276588	12.7172504
12.1380672	12.1380672	12.1380672	12.1380672
12.1380672	12.1380672	14.5076318	14.5076318
14.5076318	13.8212904	13.8212904	13.8212904
13.8212904	13.414066	13.414066	13.8212904
13.414066	13.414066	14.1644611	14.5076318
14.1644611	13.8212904	13.414066	13.414066
14.1644611	14.5076318	14.1644611	14.5076318
14.1644611	14.1644611	16.0084213	16.0084213
16.0084212	15.2580265	15.2580265	15.2580265
15.2580265	14.8828293	14.8828293	15.2580265
14.8828293	14.8828293	15.6332238	16.0084213
15.6332238	15.2580265	14.8828293	14.8828293
16.0084213	15.6332238	15.6332238	16.0084212
15.6332238	15.6332238	17.5092107	17.5092107
17.5092107	16.272201	16.8907057	16.272201
16.272201	16.8907057	16.8907057	16.272201
16.1403112	16.1403112	16.272201	16.1403112
16.1403112	17.1999581	16.8907057	17.5092107
17.1999581	16.272201	16.1403111	16.1403111
17.5092107	17.1999581	16.8907057	17.1999581
17.5092107	17.1999581	16.8907057	17.1999581
16.5814534	16.5814534	16.5814534	16.5814534
16.5814534	16.5814534	19.0100001	19.0100001
19.0100001	18.1989709	18.1989709	18.1989709
18.1989709	17.8540909	17.8540909	18.1989709
17.8540909	17.8540909	18.6044854	19.0100001
18.6044854	18.1989709	17.8540909	17.8540909
18.6044854	19.0100001	18.6044854	19.0100001
18.6044854	18.6044854	20.5107895	20.5107895
20.5107895	19.7603952	19.7603952	19.7603952
19.7603952	19.3851977	19.3851977	19.7603952
19.3851977	19.3851977	20.1355925	20.5107895
20.1355925	19.7603952	19.3851977	19.3851977
20.5107895	20.1355925	20.1355925	20.5107895
20.1355925	20.1355925	22.0115789	22.0115789
22.0115789	20.6409119	21.3262451	20.6409119
20.6409119	21.3262451	21.3262451	20.6409119
20.5758507	20.5758507	20.6409119	20.5758507
20.5758507	21.668912	21.3262451	22.0115789
21.668912	20.6409119	20.5758507	20.5758507
22.0115789	21.668912	21.3262451	21.668912
22.0115789	21.668912	21.3262451	21.668912
20.9835784	20.9835784	20.9835784	20.9835784
20.9835784	20.9835784	23.5123683	23.5123683
23.5123683	22.6030395	22.6030395	22.6030395
22.6030395	22.3073092	22.3073092	22.6030395
22.3073092	22.3073092	23.0577041	23.5123683
23.0577041	22.6030395	22.3073092	22.3073092
23.0577041	23.5123683	23.0577041	23.5123683
23.0577041	23.0577041	25.0131577	25.0131577
25.0131577	24.0524472	24.5925266	24.5925266
24.5925266	24.0524472	24.0524472	24.0524472
23.7824077	23.7824077	24.0524472	23.7824077
23.7824077	24.8028422	24.5925266	25.0131577
24.8028422	24.0524472	23.7824077	23.7824077
24.8028422	24.5925266	25.0131577	24.8028422
25.0131577	24.8028421	24.5925266	24.8028422
24.3224868	24.3224868	24.3224868	24.3224868
24.3224868	24.3224868	26.5139472	26.5139471
26.5139471	25.7635529	25.7635529	25.7635529
25.7635529	25.3883554	25.3883554	25.7635529
25.3883554	25.3883554	26.1387502	26.5139472
26.1387502	25.7635529	25.3883554	25.3883554
26.5139471	26.1387502	26.1387502	26.5139471
26.1387502	26.1387502	28.0147366	28.0147366
28.0147366	26.5820145	27.2983752	26.5820145
26.5820145	27.2983752	27.2983752	26.5820145
26.5479808	26.5479808	26.5820145	26.5479808
26.5479808	27.6565558	27.2983752	28.0147366
27.6565558	26.5820145	26.5479808	26.5479808
28.0147366	27.6565558	27.2983752	27.6565558
28.0147366	27.6565558	27.2983752	27.6565558
26.9401947	26.9401947	26.9401947	26.9401947
26.9401947	26.9401947	29.5155271	29.5155271
29.5155271	28.5688407	28.5688407	28.5688407
28.5688407	28.2917886	28.2917886	28.5688407
28.2917886	28.2917886	29.0421839	29.5155271
29.0421839	28.5688407	28.2917886	28.2917886
29.5155271	29.0421839	29.0421839	29.5155271
29.0421839	29.0421839	31.0163154	31.0163154
31.0163154	30.0291198	30.542712	30.542712
30.542712	30.0291198	30.0291198	30.0291198
29.7723236	29.7723236	30.0291198	29.7723236
29.7723236	30.7795136	30.542712	31.0163154
30.7795136	30.0291198	29.7723236	29.7723236
30.7795136	30.542712	31.0163154	30.7795136
31.0163154	30.7795136	30.542712	30.7795136
30.2859159	30.2859159	30.2859159	30.2859159
30.2859159	30.2859159	32.5171059	32.5171059
32.5171059	31.6826601	32.3490049	32.3490049
32.3490049	31.6826601	31.6826601	31.6826601
31.3494878	31.3494878	31.6826601	31.3494878
31.3494878	32.4330554	32.3490049	32.5171059
32.4330554	31.6826601	31.3494878	31.3494878
32.4330554	32.3490049	32.5171059	32.4330554
32.5171059	32.4330554	32.3490049	32.4330554
32.0158325	32.0158325	32.0158325	32.0158325
32.0158325	32.0158325	34.0178942	34.0178942
34.0178942	33.2675	33.2675	33.2675001
33.2675001	32.8923032	32.8923032	33.2675
32.8923032	32.8923032	33.6426969	34.0178942
33.6426969	33.2675	32.8923032	32.8923032
34.0178942	33.6426969	33.6426969	34.0178942
33.6426969	33.6426969	36.5192106	36.5192106
36.5192106	34.3225589	35.2493409	36.1761224
34.3225589	34.3225589	36.1761224	36.1761224
35.2493409	35.2493409	34.3225589	34.1702265
34.1702265	34.3225589	34.1702265	34.1702265
36.3476665	36.1761224	36.5192106	36.3476665
34.3225589	34.1702265	34.1702265	36.3476665
36.1761224	36.5192106	36.3476665	36.5192106
36.3476665	36.1761224	36.3476665	35.2493409
34.7859499	34.7859499	35.7127318	35.7127318
34.7859499	35.2493409	34.7859499	34.7859499
35.7127318	35.7127318	35.7127318	35.2493409
34.7859499	35.7127318	37.7749003	37.7744171
37.7735709	37.2388012	37.238907	37.2389674
37.2390216	36.8905779	36.8905847	37.2389383
36.8905704	36.8905743	37.541401	37.7753337
37.5415838	37.2388569	36.8905571	36.8905641
37.7746671	37.5411971	37.5413026	37.7740164
37.5408401	37.541028	0.366149669	1.18878998
1.15232728	0.672866262	0.276181462	0.626573904
3.7032279	1.93152001	2.74592937	1.90329279
1.54257714	1.50985785	3.20913102	2.72700061
3.69334459	3.19479727	2.32191534	2.29828467
5.50514986	3.94481596	4.76980601	3.93692263
3.82354981	3.81468658	5.15597442	4.76707428
5.50466868	5.15476285	4.36122605	4.3562464
7.00368446	5.88096026	6.4419674	5.8807583
5.69296166	5.69264002	6.72278158	6.44194217
7.00368447	6.72277843	6.16133071	6.16124551
8.50447388	7.86950021	7.86950022	7.43659237
7.43659238	8.18698702	8.50447389	8.18698703
10.005263	9.18173102	9.85898798	9.18173103
8.84310248	8.84310249	9.93212549	9.85898799
10.005263	9.9321255	9.52035951	9.52035952
11.5060524	10.7556577	10.7556577	10.3804603
10.3804603	11.1308551	11.5060524	11.1308551
13.0068418	11.8484756	12.4276588	11.8484756
11.677264	11.677264	12.7172504	12.4276588
13.0068418	12.7172504	12.1380672	12.1380672
14.5076318	13.8212904	13.8212904	13.414066
13.414066	14.1644611	14.5076318	14.1644611
16.0084212	15.2580265	15.2580265	14.8828293
14.8828293	15.6332238	16.0084212	15.6332238
17.5092106	16.272201	16.8907057	16.272201
16.1403111	16.1403111	17.1999581	16.8907057
17.5092107	17.1999581	16.5814534	16.5814534
19.0100001	18.1989709	18.1989709	17.8540909
17.8540909	18.6044854	19.0100001	18.6044854
20.5107895	19.7603952	19.7603952	19.3851977
19.3851977	20.1355925	20.5107895	20.1355925
22.0115789	20.6409119	21.3262451	20.6409119
20.5758507	20.5758507	21.6689119	21.3262451
22.0115789	21.668912	20.9835784	20.9835784
23.5123683	22.6030395	22.6030395	22.3073092
22.3073092	23.0577041	23.5123683	23.0577041
25.0131577	24.0524472	24.5925266	24.0524472
23.7824076	23.7824076	24.8028421	24.5925266
25.0131577	24.8028421	24.3224868	24.3224868
26.5139471	25.7635528	25.7635529	25.3883553
25.3883553	26.1387501	26.5139471	26.1387502
28.0147365	26.5820145	27.2983751	26.5820145
26.5479808	26.5479808	27.6565558	27.2983752
28.0147366	27.6565558	26.9401947	26.9401947
29.5155271	28.5688407	28.5688407	28.2917886
28.2917886	29.0421839	29.5155271	29.0421839
31.0163154	30.0291198	30.542712	30.0291198
29.7723236	29.7723236	30.7795136	30.542712
31.0163154	30.7795136	30.2859159	30.2859159
32.5171059	31.6826601	32.3490049	31.6826601
31.3494877	31.3494877	32.4330554	32.3490049
32.5171059	32.4330554	32.0158325	32.0158325
34.0178942	33.2675	33.2675	32.8923032
32.8923032	33.6426969	34.0178942	33.6426969
36.5192106	34.3225589	35.2493409	36.1761224
34.3225589	34.1702265	34.1702265	36.3476665
36.1761224	36.5192106	36.3476665	35.2493409
34.7859499	34.7859499	35.7127318	35.7127318
37.6867638	37.2279504	37.2385969	36.8892008
36.8905316	37.5042184	37.7719358	37.5401503
0.368144861	0.375419043	1.25161486	1.259765
1.22744406	0.733500161	0.3458894	0.707486319
1.25778915	0.742242991	0.373738635	0.740133844
3.72025673	3.72246583	1.98646458	2.78277437
1.98015524	2.77854342	1.96144366	1.59895216
1.57726283	1.984935	1.60626557	1.60449257
3.23382793	2.76599572	3.71370518	3.22432622
3.72193028	3.23703179	2.78174866	3.23625508
2.36263076	2.3469662	2.36791268	2.36663218
5.50597893	5.50608646	3.96018037	4.7751233
3.95841607	4.77451272	3.95318366	3.83882105
3.83294571	3.95975265	3.84080214	3.84032187
5.15806192	4.7727019	5.50565996	5.15725879
5.5060604	5.15833271	4.77497528	5.15826706
4.36980591	4.36650496	4.37091895	4.37064912
7.00368443	7.0036844	5.88135333	6.44201649
5.88130821	6.44201087	5.88117434	5.69351584
5.69330263	5.8813424	5.69358771	5.6935703
6.72278698	6.44199415	7.00368445	6.72278491
7.00368442	6.72278766	6.44201513	6.7227875
6.16147748	6.16142102	6.1614965	6.1614919
8.50447384	8.50447382	7.86950015	7.86950017
7.86950019	7.43659233	7.43659235	7.86950016
7.43659231	7.43659232	8.18698698	8.50447386
8.186987	8.50447383	8.18698696	8.18698697
10.005263	10.0052629	9.18173096	9.85898792
9.85898794	9.18173099	9.181731	8.84310245
8.84310247	9.18173097	8.84310242	8.84310244
9.93212546	9.85898796	10.005263	9.93212548
10.005263	9.93212543	9.85898793	9.93212545
9.52035948	9.5203595	9.52035946	9.52035947
11.5060524	11.5060524	10.7556577	10.7556577
10.7556577	10.3804603	10.3804603	10.7556577
10.3804602	10.3804603	11.1308551	11.5060524
11.1308551	11.5060524	11.1308551	11.1308551
13.0068418	13.0068418	11.8484756	12.4276587
11.8484756	12.4276588	11.8484756	11.677264
11.677264	11.8484756	11.6772639	11.677264
12.7172503	12.4276588	13.0068418	12.7172503
13.0068418	12.7172503	12.4276587	12.7172503
12.1380672	12.1380672	12.1380671	12.1380671
14.5076318	14.5076318	13.8212903	13.8212903
13.8212904	13.414066	13.414066	13.8212903
13.414066	13.414066	14.164461	14.5076318
14.1644611	14.5076318	14.164461	14.164461
16.0084212	16.0084212	15.2580265	15.2580265
15.2580265	14.8828292	14.8828293	15.2580265
14.8828292	14.8828292	15.6332237	16.0084212
15.6332238	16.0084212	15.6332237	15.6332237
17.5092106	17.5092106	16.2722009	16.8907057
16.2722009	16.8907057	16.272201	16.1403111
16.1403111	16.2722009	16.1403111	16.1403111
17.1999581	16.8907057	17.5092106	17.1999581
17.5092106	17.199958	16.8907057	17.199958
16.5814533	16.5814534	16.5814533	16.5814533
19.01	19.01	18.1989708	18.1989708
18.1989709	17.8540908	17.8540908	18.1989708
17.8540908	17.8540908	18.6044853	19.01
18.6044853	19.01	18.6044853	18.6044853
20.5107894	20.5107894	19.7603951	19.7603952
19.7603952	19.3851976	19.3851977	19.7603951
19.3851976	19.3851976	20.1355925	20.5107895
20.1355925	20.5107894	20.1355924	20.1355924
22.0115788	22.0115788	20.6409119	21.326245
20.6409119	21.326245	20.6409119	20.5758507
20.5758507	20.6409119	20.5758506	20.5758506
21.6689119	21.3262451	22.0115789	21.6689119
22.0115788	21.6689119	21.326245	21.6689119
20.9835783	20.9835784	20.9835783	20.9835783
23.5123683	23.5123682	22.6030394	22.6030395
22.6030395	22.3073092	22.3073092	22.6030395
22.3073092	22.3073092	23.0577041	23.5123683
23.0577041	23.5123683	23.0577041	23.0577041
25.0131577	25.0131577	24.0524471	24.5925265
24.5925265	24.0524471	24.0524471	23.7824076
23.7824076	24.0524471	23.7824076	23.7824076
24.8028421	24.5925265	25.0131577	24.8028421
25.0131577	24.8028421	24.5925265	24.8028421
24.3224868	24.3224868	24.3224868	24.3224868
26.5139471	26.5139471	25.7635528	25.7635528
25.7635528	25.3883553	25.3883553	25.7635528
25.3883553	25.3883553	26.1387501	26.5139471
26.1387501	26.5139471	26.1387501	26.1387501
28.0147365	28.0147365	26.5820144	27.2983751
26.5820145	27.2983751	26.5820145	26.5479808
26.5479808	26.5820144	26.5479808	26.5479808
27.6565558	27.2983751	28.0147365	27.6565558
28.0147365	27.6565557	27.2983751	27.6565558
26.9401946	26.9401947	26.9401946	26.9401946
29.5155271	29.515527	28.5688406	28.5688406
28.5688407	28.2917886	28.2917886	28.5688406
28.2917885	28.2917886	29.0421838	29.5155271
29.0421839	29.515527	29.0421838	29.0421838
31.0163153	31.0163153	30.0291198	30.542712
30.542712	30.0291198	30.0291198	29.7723235
29.7723236	30.0291198	29.7723235	29.7723235
30.7795135	30.542712	31.0163153	30.7795136