TITLE = "Visualization of CSM meshes"
VARIABLES = "x"  "y"  "z" 

ZONE
T="Zone Title"
DATAPACKING=Block
ZONETYPE=FEQUADRILATERAL
N=9383 E=10390
-0.0286138222	0.754024125	0.251353977	0.0793419249	0.479041616
3.41233298	1.46085674	2.35882979	2.86896847
1.89030535	1.08884969	5.24245588	3.49710757
4.4349151	3.4546821	4.86504482	3.97221869
6.67578966	5.36927283	6.02332926	5.30588
6.34965923	5.69660028	8.10631592	7.19958941
6.93768955	7.65295263	9.53684191	9.02777953
8.56704778	9.28231072	10.9673682	10.1964057
10.8559695	9.86662375	10.9116689	10.5261876
12.3978944	11.6826313	11.3249997	12.0402629
13.8284212	12.6731256	13.2507733	12.53551
13.5395972	12.9619494	15.2589475	14.7997094
14.3140654	15.0293284	16.6894737	15.9742106
15.6165791	16.3318421	18.12	16.7374774
17.4287387	16.7134756	17.7743692	17.0831081
19.5505263	19.0516931	18.5858467	19.3011098
20.9810525	20.265789	19.9081575	20.6234207
22.4115788	21.0127055	21.7121425	20.996879
22.0618608	21.3624241	23.842105	22.8408952
23.3415	22.6262369	23.5918025	23.0911975
25.2726313	24.669086	24.2555956	24.9708588
26.7031576	25.8849531	26.4972755	25.5787921
26.6002165	26.1911142	28.1336849	27.4184212
27.0607894	27.7760531	29.5642101	28.3157464
28.9399781	28.2247157	29.2520939	28.6278623
30.9947374	30.1536128	29.8589114	30.5741751
32.4252626	31.5979398	32.2011419	31.2963388
32.3132022	31.8995408	34.8094737	33.270103
34.1149434	32.8476828	34.4622087	33.6925233
36.0072592	35.4956439	35.1634684	35.7841807
-0.0222418068	0.055017414	0.760548936	0.81084488
0.257973355	0.0858069204	-0.00501598651	0.150214285
0.0592063424	0.431392699	0.312515915	0.28649484
0.779899453	0.485729894	0.570906888	0.252981391
-0.0268877136	0.0809857438	0.755605947	0.480665901
3.41426085	3.42912163	1.50856833	2.3913765
1.46633553	2.04673107	2.69729706	2.99271658
2.56868034	2.8091853	3.41280036	3.04991206
3.15967646	2.15855839	1.78903721	1.94211932
1.46218497	1.74789366	1.65671866	2.36256721
2.36047226	2.15000793	2.60106689	2.36836373
1.09494936	1.09032844	1.48258389	1.14196813
1.11303904	2.89356747	3.41997829	2.9768609
1.93073637	1.82736714	5.2425505	5.24327975
3.51273023	4.44022721	3.49890156	4.43552511
3.4975425	3.4565425	3.45513312	3.50422191
3.47088316	3.46205983	4.86530507	4.43506299
5.24247883	4.86510792	5.24283107	4.86731109
4.43733416	4.86607686	3.9733456	3.9724919
3.98203221	3.97668763	6.67578968	6.67578971
5.36989743	6.02340738	5.36934457	6.02333824
5.36929023	5.30596265	5.30590004	5.36955727
5.30659964	5.30620773	6.34966037	6.02333144
6.67578967	6.34965951	6.67578969	6.34966904
6.02336485	6.34966371	5.69663055	5.69660762
5.69686381	5.6967203	8.10631594	8.10631597
7.19958946	7.19958942	7.19958942	6.93768957
6.93768956	7.19958944	6.9376896	6.93768958
7.65295265	8.10631593	7.65295264	8.10631595
7.65295268	7.65295267	9.53684192	9.53684196
9.02777958	9.02777955	9.02777954	8.5670478
8.56704779	9.02777956	8.56704783	8.56704782
9.28231074	9.53684192	9.28231073	9.53684194
9.28231077	9.28231076	10.9673682	10.9673682
10.1964057	10.8559696	10.8559696	10.1964057
10.1964057	9.86662377	9.86662376	10.1964057
9.8666238	9.86662379	10.9116689	10.8559695
10.9673682	10.9116689	10.9673682	10.9116689
10.8559696	10.9116689	10.5261877	10.5261877
10.5261877	10.5261877	12.3978944	12.3978945
11.6826313	11.6826313	11.6826313	11.3249997
11.3249997	11.6826313	11.3249997	11.3249997
12.0402629	12.3978944	12.0402629	12.3978945
12.040263	12.0402629	13.8284212	13.8284213
12.6731256	13.2507733	12.6731256	13.2507733
12.6731256	12.53551	12.53551	12.6731256
12.53551	12.53551	13.5395973	13.2507733
13.8284212	13.5395973	13.8284213	13.5395973
13.2507733	13.5395973	12.9619494	12.9619494
12.9619494	12.9619494	15.2589475	15.2589475
14.7997095	14.7997094	14.7997094	14.3140655
14.3140655	14.7997095	14.3140655	14.3140655
15.0293284	15.2589475	15.0293284	15.2589475
15.0293284	15.0293284	16.6894738	16.6894738
15.9742107	15.9742106	15.9742106	15.6165792
15.6165792	15.9742106	15.6165792	15.6165792
16.3318421	16.6894738	16.3318421	16.6894738
16.3318421	16.3318421	18.12	18.12
16.7374775	17.4287387	16.7374774	17.4287387
16.7374774	16.7134756	16.7134756	16.7374774
16.7134756	16.7134756	17.7743693	17.4287387
18.12	17.7743693	18.12	17.7743693
17.4287387	17.7743693	17.0831081	17.0831081
17.0831082	17.0831082	19.5505263	19.5505263
19.0516932	19.0516931	19.0516931	18.5858467
18.5858467	19.0516932	18.5858467	18.5858467
19.3011098	19.5505263	19.3011098	19.5505263
19.3011098	19.3011098	20.9810525	20.9810526
20.265789	20.265789	20.265789	19.9081575
19.9081575	20.265789	19.9081575	19.9081575
20.6234207	20.9810525	20.6234207	20.9810526
20.6234207	20.6234207	22.4115788	22.4115788
21.0127056	21.7121426	21.0127055	21.7121426
21.0127055	20.996879	20.996879	21.0127056
20.9968791	20.9968791	22.0618608	21.7121426
22.4115788	22.0618608	22.4115788	22.0618609
21.7121426	22.0618608	21.3624241	21.3624241
21.3624241	21.3624241	23.8421051	23.8421051
22.8408952	23.3415	22.8408952	23.3415
22.8408952	22.6262369	22.6262369	22.8408952
22.626237	22.6262369	23.5918025	23.3415
23.842105	23.5918025	23.8421051	23.5918025
23.3415	23.5918025	23.0911975	23.0911975
23.0911976	23.0911976	25.2726313	25.2726313
24.6690861	24.669086	24.669086	24.2555956
24.2555956	24.6690861	24.2555957	24.2555956
24.9708588	25.2726313	24.9708588	25.2726313
24.9708588	24.9708588	26.7031576	26.7031576
25.8849531	26.4972756	26.4972755	25.8849531
25.8849531	25.5787921	25.5787921	25.8849531
25.5787921	25.5787921	26.6002166	26.4972755
26.7031576	26.6002165	26.7031576	26.6002166
26.4972756	26.6002166	26.1911143	26.1911142
26.1911143	26.1911143	28.1336849	28.1336849
27.4184213	27.4184212	27.4184212	27.0607894
27.0607894	27.4184213	27.0607894	27.0607894
27.7760531	28.1336849	27.7760531	28.1336849
27.7760531	27.7760531	29.5642101	29.5642101
28.3157464	28.9399781	28.3157464	28.9399781
28.3157464	28.2247157	28.2247157	28.3157464
28.2247157	28.2247157	29.2520939	28.9399781
29.5642101	29.2520939	29.5642101	29.2520939
28.9399781	29.2520939	28.6278624	28.6278623
28.6278624	28.6278624	30.9947374	30.9947374
30.1536128	30.1536128	30.1536128	29.8589115
29.8589114	30.1536128	29.8589115	29.8589115
30.5741751	30.9947374	30.5741751	30.9947374
30.5741751	30.5741751	32.4252626	32.4252626
31.5979399	32.2011419	32.2011419	31.5979399
31.5979398	31.2963388	31.2963388	31.5979399
31.2963388	31.2963388	32.3132022	32.2011419
32.4252626	32.3132022	32.4252626	32.3132022
32.2011419	32.3132022	31.8995408	31.8995408
31.8995408	31.8995408	34.8094737	34.8094738
33.2701031	34.1149435	34.1149434	33.270103
33.270103	32.8476828	32.8476828	33.270103
32.8476828	32.8476828	34.8094737	34.4622087
34.1149434	34.4622087	34.4622088	34.1149434
34.8094738	34.4622088	33.6925233	33.6925233
33.6925233	33.6925233	36.0061286	35.9223651
35.4850321	35.4955025	35.4955898	35.1634507
35.1634616	35.4952652	35.1621419	35.163421
35.7837037	36.0068267	35.7839982	36.0042295
35.748366	35.7829025	0.0658821053	0.873554647
0.369837518	0.206193328	0.0405550096	0.188396103
0.127684374	0.492554248	0.326609126	0.84003594
0.601219362	0.651290525	3.44765026	1.56122483
2.42729638	1.53307965	1.20059186	1.16925716
2.92071594	2.40809701	3.43774661	2.90620494
1.97535772	1.95150737	5.24418897	3.52997202
4.44608984	3.52075619	3.48876331	3.47920627
4.86981221	4.44295623	5.24370299	4.86847535
3.99286279	3.98707379	6.67578972	5.37058672
6.02349355	5.37021829	5.30739383	5.30696933
6.34967982	6.02344749	6.67578972	6.34967406
5.69715461	5.69699918	8.10631598	7.19958947
7.19958946	6.93768961	6.93768961	7.6529527
8.10631598	7.65295269	9.53684197	9.02777959
9.02777959	8.56704784	8.56704784	9.28231079
9.53684196	9.28231078	10.9673682	10.1964058
10.8559696	10.1964058	9.86662382	9.86662381
10.9116689	10.8559696	10.9673682	10.9116689
10.5261877	10.5261877	12.3978945	11.6826314
11.6826314	11.3249997	11.3249997	12.040263
12.3978945	12.040263	13.8284213	12.6731256
13.2507734	12.6731256	12.53551	12.53551
13.5395973	13.2507733	13.8284213	13.5395973
12.9619494	12.9619494	15.2589475	14.7997095
14.7997095	14.3140655	14.3140655	15.0293285
15.2589475	15.0293285	16.6894738	15.9742107
15.9742107	15.6165792	15.6165792	16.3318421
16.6894738	16.3318421	18.1200001	16.7374775
17.4287387	16.7374775	16.7134756	16.7134756
17.7743693	17.4287387	18.1200001	17.7743693
17.0831082	17.0831082	19.5505263	19.0516932
19.0516932	18.5858467	18.5858467	19.3011098
19.5505263	19.3011098	20.9810526	20.265789
20.265789	19.9081575	19.9081575	20.6234208
20.9810526	20.6234208	22.4115788	21.0127056
21.7121426	21.0127056	20.9968791	20.9968791
22.0618609	21.7121426	22.4115788	22.0618609
21.3624242	21.3624241	23.8421051	22.8408952
23.3415	22.8408952	22.626237	22.626237
23.5918025	23.3415	23.8421051	23.5918025
23.0911976	23.0911976	25.2726314	24.6690861
24.6690861	24.2555957	24.2555957	24.9708588
25.2726314	24.9708588	26.7031576	25.8849531
26.4972756	25.8849531	25.5787921	25.5787921
26.6002166	26.4972756	26.7031576	26.6002166
26.1911143	26.1911143	28.133685	27.4184213
27.4184213	27.0607895	27.0607894	27.7760531
28.1336849	27.7760531	29.5642101	28.3157465
28.9399781	28.3157465	28.2247157	28.2247157
29.252094	28.9399781	29.5642101	29.2520939
28.6278624	28.6278624	30.9947375	30.1536128
30.1536128	29.8589115	29.8589115	30.5741752
30.9947374	30.5741751	32.4252626	31.5979399
32.2011419	31.5979399	31.2963388	31.2963388
32.3132022	32.2011419	32.4252626	32.3132022
31.8995408	31.8995408	34.8094738	33.2701031
34.1149435	33.2701031	32.8476828	32.8476828
34.4622088	34.1149435	34.8094738	34.4622088
33.6925233	33.6925233	36.0051081	35.495375
35.4951802	35.1634348	35.1634104	35.7832732
36.0035495	35.7826156	0.0873140352	0.12336581
0.901445337	0.947646806	0.0764201085	0.250213757
0.155271441	0.540638318	0.397406748	0.388054177
0.887312801	0.683848071	0.924377549	0.443144385
0.105093713	0.420094398	3.45589101	3.46954199
1.62343897	2.46973605	1.58464425	2.44327205
1.57277736	1.22666525	1.21345356	1.6039001
1.26985633	1.24810325	2.93279044	2.435177
3.45171533	2.92667215	3.46266671	2.95279208
2.45640752	2.94271831	1.99520344	1.98514738
2.02807825	2.01152093	5.24459334	5.2452632
3.55034333	4.45301657	3.53764044	4.44869729
3.53375476	3.49671564	3.4926861	3.54394555
3.50988885	3.5032542	4.8709246	4.44737606
5.24438844	4.87036094	5.24492583	4.87276729
4.45084118	4.87183922	3.99767978	3.99523895
4.00565921	4.00164039	6.67578973	6.67578973
5.37140111	6.02359536	5.37089328	6.02353188
5.37073794	5.30774704	5.30756806	5.37114534
5.30833215	5.30803746	6.34968462	6.02351246
6.67578972	6.34968219	6.34969255	6.02356338
6.67578973	6.34968856	5.69728395	5.69721841
5.69749819	5.69739029	8.10631598	8.10631599
7.19958948	7.19958947	7.19958947	6.93768962
6.93768962	7.19958948	6.93768962	6.93768962
7.6529527	8.10631598	7.6529527	8.10631599
7.6529527	7.6529527	9.53684197	9.53684198
9.0277796	9.0277796	9.0277796	8.56704785
8.56704785	9.0277796	8.56704785	8.56704785
9.28231079	9.53684197	9.28231079	9.53684198
9.28231079	9.28231079	10.9673682	10.9673682
10.1964058	10.8559696	10.8559696	10.1964058
10.1964058	9.86662382	9.86662382	10.1964058
9.86662382	9.86662382	10.9116689	10.8559696
10.9673682	10.9116689	10.9673682	10.9116689
10.8559696	10.9116689	10.5261877	10.5261877
10.5261877	10.5261877	12.3978945	12.3978945
11.6826314	11.6826314	11.6826314	11.3249997
11.3249997	11.6826314	11.3249997	11.3249997
12.040263	12.3978945	12.040263	12.040263
12.3978945	12.040263	13.8284213	13.8284213
12.6731256	13.2507734	12.6731256	13.2507734
12.6731256	12.53551	12.53551	12.6731256
12.5355101	12.53551	13.5395973	13.2507734
13.8284213	13.5395973	13.8284213	13.5395973
13.2507734	13.5395973	12.9619495	12.9619495
12.9619495	12.9619495	15.2589475	15.2589476
14.7997095	14.7997095	14.7997095	14.3140655
14.3140655	14.7997095	14.3140655	14.3140655
15.0293285	15.2589475	15.0293285	15.2589476
15.0293285	15.0293285	16.6894738	16.6894738
15.9742107	15.9742107	15.9742107	15.6165792
15.6165792	15.9742107	15.6165792	15.6165792
16.3318421	16.6894738	16.3318421	16.6894738
16.3318421	16.3318421	18.1200001	18.1200001
16.7374775	17.4287387	16.7374775	17.4287387
16.7374775	16.7134756	16.7134756	16.7374775
16.7134756	16.7134756	17.7743693	17.4287387
18.1200001	17.7743693	18.1200001	17.7743693
17.4287387	17.7743693	17.0831082	17.0831082
17.0831082	17.0831082	19.5505263	19.5505263
19.0516932	19.0516932	19.0516932	18.5858467
18.5858467	19.0516932	18.5858467	18.5858467
19.3011098	19.5505263	19.3011098	19.5505263
19.3011098	19.3011098	20.9810526	20.9810526
20.2657891	20.2657891	20.265789	19.9081575
19.9081575	20.2657891	19.9081575	19.9081575
20.6234208	20.9810526	20.6234208	20.9810526
20.6234208	20.6234208	22.4115788	22.4115788
21.0127056	21.7121426	21.0127056	21.7121426
21.0127056	20.9968791	20.9968791	21.0127056
20.9968791	20.9968791	22.0618609	21.7121426
22.4115788	22.0618609	22.0618609	21.7121426
22.4115788	22.0618609	21.3624242	21.3624242
21.3624242	21.3624242	23.8421051	23.8421051
22.8408952	23.3415	22.8408952	23.3415
22.8408952	22.626237	22.626237	22.8408952
22.626237	22.626237	23.5918026	23.3415
23.8421051	23.5918025	23.8421051	23.5918026
23.3415	23.5918026	23.0911976	23.0911976
23.0911976	23.0911976	25.2726314	25.2726314
24.6690861	24.6690861	24.6690861	24.2555957
24.2555957	24.6690861	24.2555957	24.2555957
24.9708588	25.2726314	24.9708588	25.2726314
24.9708588	24.9708588	26.7031576	26.7031576
25.8849531	26.4972756	26.4972756	25.8849531
25.8849531	25.5787921	25.5787921	25.8849531
25.5787921	25.5787921	26.6002166	26.4972756
26.7031576	26.6002166	26.7031576	26.6002166
26.4972756	26.6002166	26.1911143	26.1911143
26.1911143	26.1911143	28.133685	28.133685
27.4184213	27.4184213	27.4184213	27.0607895
27.0607895	27.4184213	27.0607895	27.0607895
27.7760531	28.133685	27.7760531	28.133685
27.7760531	27.7760531	29.5642101	29.5642101
28.3157465	28.9399781	28.3157465	28.9399781
28.3157465	28.2247157	28.2247157	28.3157465
28.2247157	28.2247157	29.252094	28.9399781
29.5642101	29.252094	29.5642101	29.252094
28.9399781	29.252094	28.6278624	28.6278624
28.6278624	28.6278624	30.9947375	30.9947375
30.1536129	30.1536129	30.1536129	29.8589115
29.8589115	30.1536129	29.8589115	29.8589115
30.5741752	30.9947375	30.5741752	30.9947375
30.5741752	30.5741752	32.4252626	32.4252626
31.5979399	32.2011419	32.2011419	31.5979399
31.5979399	31.2963388	31.2963388	31.5979399
31.2963388	31.2963388	32.3132022	32.2011419
32.4252626	32.3132022	32.4252626	32.3132023
32.2011419	32.3132023	31.8995408	31.8995408
31.8995408	31.8995408	34.8094738	34.8094738
33.2701031	34.1149435	34.1149435	33.2701031
33.2701031	32.8476828	32.8476828	33.2701031
32.8476828	32.8476828	34.8094738	34.4622088
34.1149435	34.4622088	34.8094738	34.4622088
34.1149435	34.4622088	33.6925233	33.6925233
33.6925233	33.6925233	36.0060514	36.007012
35.495613	35.4954929	35.4954376	35.1634495
35.1634426	35.4955679	35.1634645	35.1634589
35.7836711	36.0056091	35.7834845	36.0066513
35.7840764	35.7839242	0.153651913	0.184978235
0.170101824	0.9844405	1.00411335	1.02173896
0.966127908	0.479765616	0.138456941	0.461523701
0.994340982	0.499378318	0.1619126	0.489633601
0.177593596	1.01301193	0.516967336	0.508256077
3.48041328	3.48622594	3.49143371	1.68565309
2.51217571	1.65433411	1.67085311	2.50207984
2.49081132	1.63895728	1.30425263	1.28713325
1.6626474	1.32264363	1.31350802	2.96872089
2.48032195	3.47500253	2.96079296	1.67832513
1.3391208	1.33096241	3.48333853	2.9772377
2.49648227	2.97300703	3.48885517	2.98486822
2.50717691	2.9810901	2.05425892	2.04122854
2.0682572	2.08079876	2.07458902	2.06130364
5.24579665	5.24608188	5.24633742	3.57071464
4.4599433	3.5604596	3.56586856	4.45829552
4.45645634	3.55542463	3.52037965	3.51515827
3.56318169	3.52598887	3.52320253	4.87423476
4.45474434	5.24553115	4.87350438	3.56831518
3.53101438	3.52852608	5.24594019	4.87501938
4.45738192	4.87462963	5.24621089	4.87572236
4.45912743	4.87537429	4.01201382	4.00885106
4.0154115	4.01845561	4.01694837	4.01372373
6.67578973	6.67578972	6.67578972	5.37221549
6.02369715	5.37180552	5.37202176	6.02367293
6.02364591	5.37160424	5.30879811	5.3085662
5.37191434	5.30904725	5.30892349	6.34969887
6.02362075	6.67578973	6.34969573	5.37211956
5.30927046	5.30915994	6.67578973	6.34970225
6.02365951	6.34970057	6.67578972	6.34970527
6.02368516	6.34970378	5.6976688	5.69758388
5.69776002	5.69784175	5.69780128	5.69771471
8.10631599	8.10631598	8.10631598	7.19958947
7.19958947	7.19958947	7.19958948	6.93768962
6.93768962	7.19958947	6.93768962	6.93768962
7.6529527	8.10631599	7.6529527	7.19958947
6.93768961	6.93768961	7.6529527	8.10631598
7.6529527	8.10631598	7.6529527	7.6529527
9.53684197	9.53684197	9.53684197	9.02777959
9.0277796	9.0277796	9.0277796	8.56704785
8.56704785	9.0277796	8.56704785	8.56704785
9.28231079	9.53684198	9.28231079	9.0277796
8.56704784	8.56704785	9.28231079	9.53684197
9.28231079	9.53684197	9.28231079	9.28231079
10.9673682	10.9673682	10.9673682	10.1964058
10.8559696	10.8559696	10.8559696	10.1964058
10.1964058	10.1964058	9.86662382	9.86662382
10.1964058	9.86662382	9.86662382	10.9116689
10.8559696	10.9673682	10.9116689	10.1964058
9.86662382	9.86662382	10.9116689	10.8559696
10.9673682	10.9116689	10.9673682	10.9116689
10.8559696	10.9116689	10.5261877	10.5261877
10.5261877	10.5261877	10.5261877	10.5261877
12.3978945	12.3978945	12.3978945	11.6826314
11.6826314	11.6826314	11.6826314	11.3249997
11.3249997	11.6826314	11.3249997	11.3249997
12.040263	12.3978945	12.040263	11.6826314
11.3249997	11.3249997	12.040263	12.3978945
12.040263	12.3978945	12.040263	12.040263
13.8284213	13.8284213	13.8284213	12.6731256
13.2507734	12.6731256	12.6731256	13.2507734
13.2507734	12.6731256	12.53551	12.53551
12.6731256	12.53551	12.53551	13.5395973
13.2507734	13.8284213	13.5395973	12.6731256
12.53551	12.53551	13.8284213	13.5395973
13.2507734	13.5395973	13.8284213	13.5395973
13.2507734	13.5395973	12.9619495	12.9619495
12.9619495	12.9619494	12.9619495	12.9619495
15.2589476	15.2589475	15.2589475	14.7997095
14.7997095	14.7997095	14.7997095	14.3140655
14.3140655	14.7997095	14.3140655	14.3140655
15.0293285	15.2589476	15.0293285	14.7997095
14.3140655	14.3140655	15.2589475	15.0293285
15.0293285	15.2589475	15.0293285	15.0293285
16.6894738	16.6894738	16.6894738	15.9742107
15.9742107	15.9742107	15.9742107	15.6165792
15.6165792	15.9742107	15.6165792	15.6165792
16.3318421	16.6894738	16.3318421	15.9742107
15.6165792	15.6165792	16.6894738	16.3318421
16.3318421	16.6894738	16.3318421	16.3318421
18.1200001	18.1200001	18.1200001	16.7374775
17.4287387	16.7374775	16.7374775	17.4287387
17.4287387	16.7374775	16.7134756	16.7134756
16.7374775	16.7134756	16.7134756	17.7743693
17.4287387	18.1200001	17.7743693	16.7374775
16.7134756	16.7134756	18.1200001	17.7743693
17.4287387	17.7743693	18.1200001	17.7743693
17.4287387	17.7743693	17.0831082	17.0831082
17.0831082	17.0831082	17.0831082	17.0831082
19.5505263	19.5505263	19.5505263	19.0516932
19.0516932	19.0516932	19.0516932	18.5858467
18.5858467	19.0516932	18.5858467	18.5858467
19.3011098	19.5505263	19.3011098	19.0516932
18.5858467	18.5858467	19.3011098	19.5505263
19.3011098	19.5505263	19.3011098	19.3011098
20.9810526	20.9810526	20.9810526	20.265789
20.265789	20.2657891	20.2657891	19.9081575
19.9081575	20.2657891	19.9081575	19.9081575
20.6234208	20.9810526	20.6234208	20.265789
19.9081575	19.9081575	20.9810526	20.6234208
20.6234208	20.9810526	20.6234208	20.6234208
22.4115788	22.4115788	22.4115788	21.0127056
21.7121426	21.0127056	21.0127056	21.7121426
21.7121426	21.0127056	20.9968791	20.9968791
21.0127056	20.9968791	20.9968791	22.0618609
21.7121426	22.4115788	22.0618609	21.0127056
20.9968791	20.9968791	22.4115788	22.0618609
21.7121426	22.0618609	22.4115788	22.0618609
21.7121426	22.0618609	21.3624242	21.3624242
21.3624242	21.3624242	21.3624242	21.3624242
23.8421051	23.8421051	23.8421051	22.8408952
23.3415	22.8408952	22.8408952	23.3415
23.3415	22.8408952	22.626237	22.626237
22.8408952	22.626237	22.626237	23.5918026
23.3415	23.8421051	23.5918026	22.8408952
22.626237	22.626237	23.8421051	23.5918025
23.3415	23.5918026	23.8421051	23.5918025
23.3415	23.5918025	23.0911976	23.0911976
23.0911976	23.0911976	23.0911976	23.0911976
25.2726314	25.2726314	25.2726314	24.6690861
24.6690861	24.6690861	24.6690861	24.2555957
24.2555957	24.6690861	24.2555957	24.2555957
24.9708588	25.2726314	24.9708588	24.6690861
24.2555957	24.2555957	24.9708588	25.2726314
24.9708588	25.2726314	24.9708588	24.9708588
26.7031576	26.7031576	26.7031576	25.8849531
26.4972756	26.4972756	26.4972756	25.8849531
25.8849531	25.8849531	25.5787921	25.5787921
25.8849531	25.5787921	25.5787921	26.6002166
26.4972756	26.7031576	26.6002166	25.8849531
25.5787921	25.5787921	26.6002166	26.4972756
26.7031576	26.6002166	26.7031576	26.6002166
26.4972756	26.6002166	26.1911143	26.1911143
26.1911143	26.1911143	26.1911143	26.1911143
28.133685	28.133685	28.133685	27.4184213
27.4184213	27.4184213	27.4184213	27.0607895
27.0607895	27.4184213	27.0607895	27.0607895
27.7760531	28.133685	27.7760531	27.4184213
27.0607895	27.0607895	28.133685	27.7760531
27.7760531	28.133685	27.7760531	27.7760531
29.5642101	29.5642101	29.5642101	28.3157465
28.9399781	28.3157465	28.3157465	28.9399781
28.9399781	28.3157465	28.2247157	28.2247157
28.3157465	28.2247157	28.2247157	29.252094
28.9399781	29.5642101	29.252094	28.3157465
28.2247157	28.2247157	29.5642101	29.252094
28.9399781	29.252094	29.5642101	29.252094
28.9399781	29.252094	28.6278624	28.6278624
28.6278624	28.6278624	28.6278624	28.6278624
30.9947375	30.9947375	30.9947375	30.1536128
30.1536129	30.1536129	30.1536129	29.8589115
29.8589115	30.1536129	29.8589115	29.8589115
30.5741752	30.9947375	30.5741752	30.1536129
29.8589115	29.8589115	30.5741752	30.9947375
30.5741752	30.9947375	30.5741752	30.5741752
32.4252626	32.4252626	32.4252626	31.5979399
32.2011419	32.2011419	32.2011419	31.5979399
31.5979399	31.5979399	31.2963388	31.2963388
31.5979399	31.2963388	31.2963388	32.3132023
32.2011419	32.4252626	32.3132023	31.5979399
31.2963388	31.2963388	32.3132022	32.2011419
32.4252626	32.3132022	32.4252626	32.3132022
32.2011419	32.3132022	31.8995408	31.8995408
31.8995408	31.8995408	31.8995408	31.8995408
34.8094738	34.8094738	34.8094738	33.2701031
34.1149435	34.1149435	34.1149435	33.2701031
33.2701031	33.2701031	32.8476828	32.8476828
33.2701031	32.8476828	32.8476828	34.4622088
34.1149435	34.8094738	34.4622088	33.2701031
32.8476828	32.8476828	34.8094738	34.4622088
34.1149435	34.4622088	34.8094738	34.4622088
34.1149435	34.4622088	33.6925233	33.6925233
33.6925233	33.6925233	33.6925233	33.6925233
36.0063132	36.0057367	36.0051081	35.495375
35.4954536	35.4955256	35.4955817	35.1634536
35.1634606	35.4954911	35.1634446	35.1634493
35.7837816	36.0067615	35.7839707	35.4954159
35.1634348	35.1634399	36.006037	35.7835384
35.783665	36.0054351	35.7832732	35.7834111
0.28910593	1.0844487	1.05525765	0.585946797
0.213685091	0.550468486	3.5099623	1.73830956
2.54809557	1.71379826	1.3977445	1.37045548
3.01201665	2.53137507	3.50133734	2.99937921
2.12542009	2.1046491	5.24724661	3.58795639
4.4658059	3.57993045	3.54889449	3.54057139
4.87822344	4.46307689	5.24682339	4.8770592
4.02928616	4.0242446	6.67578971	5.37290475
6.02378329	5.3725839	5.31006462	5.30969494
6.34971603	6.02374319	6.67578972	6.34971102
5.69813252	5.69799717	8.10631597	7.19958946
7.19958946	6.9376896	6.93768961	7.65295268
8.10631598	7.65295269	9.53684196	9.02777958
9.02777959	8.56704783	8.56704784	9.28231077
9.53684196	9.28231078	10.9673682	10.1964057
10.8559696	10.1964058	9.8666238	9.86662381
10.9116689	10.8559696	10.9673682	10.9116689
10.5261877	10.5261877	12.3978945	11.6826313
11.6826314	11.3249997	11.3249997	12.040263
12.3978945	12.040263	13.8284213	12.6731256
13.2507733	12.6731256	12.53551	12.53551
13.5395973	13.2507733	13.8284213	13.5395973
12.9619494	12.9619494	15.2589475	14.7997095
14.7997095	14.3140655	14.3140655	15.0293284
15.2589475	15.0293285	16.6894738	15.9742107
15.9742107	15.6165792	15.6165792	16.3318421
16.6894738	16.3318421	18.12	16.7374775
17.4287387	16.7374775	16.7134756	16.7134756
17.7743693	17.4287387	18.1200001	17.7743693
17.0831082	17.0831082	19.5505263	19.0516932
19.0516932	18.5858467	18.5858467	19.3011098
19.5505263	19.3011098	20.9810526	20.265789
20.265789	19.9081575	19.9081575	20.6234207
20.9810526	20.6234208	22.4115788	21.0127056
21.7121426	21.0127056	20.9968791	20.9968791
22.0618609	21.7121426	22.4115788	22.0618609
21.3624241	21.3624241	23.8421051	22.8408952
23.3415	22.8408952	22.626237	22.626237
23.5918025	23.3415	23.8421051	23.5918025
23.0911976	23.0911976	25.2726313	24.6690861
24.6690861	24.2555957	24.2555957	24.9708588
25.2726314	24.9708588	26.7031576	25.8849531
26.4972756	25.8849531	25.5787921	25.5787921
26.6002166	26.4972756	26.7031576	26.6002166
26.1911143	26.1911143	28.1336849	27.4184213
27.4184213	27.0607894	27.0607894	27.7760531
28.1336849	27.7760531	29.5642101	28.3157464
28.9399781	28.3157465	28.2247157	28.2247157
29.2520939	28.9399781	29.5642101	29.2520939
28.6278624	28.6278624	30.9947374	30.1536128
30.1536128	29.8589115	29.8589115	30.5741751
30.9947374	30.5741751	32.4252626	31.5979399
32.2011419	31.5979399	31.2963388	31.2963388
32.3132022	32.2011419	32.4252626	32.3132022
31.8995408	31.8995408	34.8094738	33.2701031
34.1149435	33.2701031	32.8476828	32.8476828
34.4622088	34.1149435	34.8094738	34.4622088
33.6925233	33.6925233	35.9223651	35.4850321
35.4951802	35.1621419	35.1634104	35.748366
36.0035495	35.7826156	0.270889036	0.274809165
1.13474459	1.14126937	1.1153941	0.628554806
0.257781412	0.609647566	1.13968757	0.634867678
0.274021047	0.633357523	3.52482301	3.52675085
1.78602106	2.58064218	1.7805423	2.57690482
1.76429398	1.44476322	1.42667357	1.78469284
1.45086286	1.44938412	3.03379084	2.56582095
3.51910561	3.0254136	3.52628349	3.03661555
2.57973613	3.03593076	2.16120829	2.14743939
2.16585101	2.16472547	5.24797579	5.24807038
3.60357895	4.47111791	3.601785	4.47050794
3.59646469	3.56323509	3.55771779	3.60314405
3.56509545	3.56464445	4.8802294	4.46869891
5.24769526	4.87945765	5.24804745	4.88048962
4.47097004	4.88042654	4.0379727	4.03463071
4.03909958	4.03882639	6.67578968	6.67578966
5.37352924	6.02386131	5.37345754	6.02385236
5.37324487	5.31070154	5.3104565	5.37351187
5.31078416	5.31076413	6.34972464	6.02382579
6.67578969	6.34972133	6.67578967	6.34972574
6.02385915	6.34972548	5.69836572	5.698276
5.69839595	5.69838863	8.10631594	8.10631592
7.19958941	7.19958942	7.19958944	6.93768957
6.93768958	7.19958942	6.93768955	6.93768956
7.65295265	8.10631595	7.65295267	8.10631593
7.65295263	7.65295264	9.53684192	9.53684191
9.02777953	9.02777955	9.02777956	8.5670478
8.56704782	9.02777954	8.56704778	8.56704779
9.28231074	9.53684194	9.28231076	9.53684192
9.28231072	9.28231073	10.9673682	10.9673682
10.1964057	10.8559695	10.8559696	10.1964057
10.1964057	9.86662377	9.86662379	10.1964057
9.86662375	9.86662376	10.9116689	10.8559696
10.9673682	10.9116689	10.9673682	10.9116689
10.8559695	10.9116689	10.5261877	10.5261877
10.5261876	10.5261877	12.3978944	12.3978944
11.6826313	11.6826313	11.6826313	11.3249997
11.3249997	11.6826313	11.3249997	11.3249997
12.0402629	12.3978945	12.0402629	12.3978944
12.0402629	12.0402629	13.8284212	13.8284212
12.6731256	13.2507733	12.6731256	13.2507733
12.6731256	12.53551	12.53551	12.6731256
12.53551	12.53551	13.5395973	13.2507733
13.8284213	13.5395973	13.8284212	13.5395972
13.2507733	13.5395973	12.9619494	12.9619494
12.9619494	12.9619494	15.2589475	15.2589475
14.7997094	14.7997094	14.7997095	14.3140655
14.3140655	14.7997094	14.3140654	14.3140655
15.0293284	15.2589475	15.0293284	15.2589475
15.0293284	15.0293284	16.6894738	16.6894737
15.9742106	15.9742106	15.9742106	15.6165792
15.6165792	15.9742106	15.6165791	15.6165792
16.3318421	16.6894738	16.3318421	16.6894738
16.3318421	16.3318421	18.12	18.12
16.7374774	17.4287387	16.7374774	17.4287387
16.7374774	16.7134756	16.7134756	16.7374774
16.7134756	16.7134756	17.7743693	17.4287387
18.12	17.7743693	18.12	17.7743692
17.4287387	17.7743693	17.0831081	17.0831082
17.0831081	17.0831081	19.5505263	19.5505263
19.0516931	19.0516931	19.0516932	18.5858467
18.5858467	19.0516931	18.5858467	18.5858467
19.3011098	19.5505263	19.3011098	19.5505263
19.3011098	19.3011098	20.9810525	20.9810525
20.265789	20.265789	20.265789	19.9081575
19.9081575	20.265789	19.9081575	19.9081575
20.6234207	20.9810526	20.6234207	20.9810525
20.6234207	20.6234207	22.4115788	22.4115788
21.0127055	21.7121425	21.0127055	21.7121426
21.0127056	20.996879	20.9968791	21.0127055
20.996879	20.996879	22.0618608	21.7121426
22.4115788	22.0618608	22.4115788	22.0618608
21.7121426	22.0618608	21.3624241	21.3624241
21.3624241	21.3624241	23.8421051	23.842105
22.8408952	23.3415	22.8408952	23.3415
22.8408952	22.6262369	22.6262369	22.8408952
22.6262369	22.6262369	23.5918025	23.3415
23.8421051	23.5918025	23.842105	23.5918025
23.3415	23.5918025	23.0911975	23.0911976
23.0911975	23.0911975	25.2726313	25.2726313
24.669086	24.669086	24.6690861	24.2555956
24.2555956	24.669086	24.2555956	24.2555956
24.9708588	25.2726313	24.9708588	25.2726313
24.9708588	24.9708588	26.7031576	26.7031576
25.8849531	26.4972755	26.4972755	25.8849531
25.8849531	25.5787921	25.5787921	25.8849531
25.5787921	25.5787921	26.6002166	26.4972756
26.7031576	26.6002166	26.7031576	26.6002165
26.4972755	26.6002165	26.1911143	26.1911143
26.1911142	26.1911142	28.1336849	28.1336849
27.4184212	27.4184212	27.4184213	27.0607894
27.0607894	27.4184212	27.0607894	27.0607894
27.7760531	28.1336849	27.7760531	28.1336849
27.7760531	27.7760531	29.5642101	29.5642101
28.3157464	28.9399781	28.3157464	28.9399781
28.3157464	28.2247157	28.2247157	28.3157464
28.2247157	28.2247157	29.2520939	28.9399781
29.5642101	29.2520939	29.5642101	29.2520939
28.9399781	29.2520939	28.6278624	28.6278624
28.6278623	28.6278623	30.9947374	30.9947374
30.1536128	30.1536128	30.1536128	29.8589115
29.8589115	30.1536128	29.8589114	29.8589114
30.5741751	30.9947374	30.5741751	30.9947374
30.5741751	30.5741751	32.4252626	32.4252626
31.5979398	32.2011419	32.2011419	31.5979399
31.5979399	31.2963388	31.2963388	31.5979398
31.2963388	31.2963388	32.3132022	32.2011419
32.4252626	32.3132022	32.4252626	32.3132022
32.2011419	32.3132022	31.8995408	31.8995408
31.8995408	31.8995408	34.8094737	34.8094737
33.270103	34.1149434	34.1149434	33.270103
33.270103	32.8476828	32.8476828	33.270103