title = GeoMACH PSM output
variables = x,y,z,
ZONE T="fuse:rgt:0:0",N=9,E=4,DATAPACKING=POINT, ZONETYPE = FEQUADRILATERAL
0.289105871909 -0.814750642496 -0.314776531365 
0.184978162818 -0.689133044354 -0.369952269289 
1.08444860689 -0.922566040325 -0.642337182304 
1.02173883613 -0.635850612716 -0.838580331406 
1.05525754496 -0.789101550911 -0.755023175793 
0.516967238462 -0.661209400575 -0.585821335995 
0.213685027056 -0.754329758653 -0.333333710795 
0.585946721938 -0.857228336563 -0.452653403054 
0.550468398253 -0.76573925523 -0.527479883452 
1 8 9 7 
7 9 6 2 
3 5 9 8 
6 9 5 4 
ZONE T="fuse:rgt:0:1",N=21,E=12,DATAPACKING=POINT, ZONETYPE = FEQUADRILATERAL
1.08444860689 -0.922566040325 -0.642337182304 
1.02173883613 -0.635850612716 -0.838580331406 
3.50996219943 -1.08494932434 -1.05976382242 
3.49143357155 -0.600386473291 -1.38353675589 
1.73830946075 -0.990343704757 -0.82832537788 
2.54809546234 -1.04508631539 -0.969397183989 
1.68565295455 -0.615038776414 -1.08139056924 
2.51217557175 -0.602946024311 -1.26556182167 
1.71379813913 -0.815641279242 -0.973639507875 
1.33912066751 -0.624469743563 -0.96674984086 
1.05525754496 -0.789101550911 -0.755023175793 
1.39774440419 -0.957973924429 -0.740512679435 
1.370455369 -0.802729522034 -0.870421720353 
2.98486808358 -0.600600558238 -1.33181405724 
2.53137494506 -0.839272388003 -1.13945971372 
3.01201654796 -1.06661485999 -1.02014518282 
3.50133722127 -0.859387923464 -1.24567948246 
2.99937908233 -0.849687709045 -1.19911049624 
2.08079862759 -0.607871475706 -1.18145780523 
2.1254199818 -1.01956180958 -0.90497504789 
2.1046489801 -0.827922173496 -1.06373592334 
1 12 13 11 
11 13 10 2 
3 17 18 16 
14 18 17 4 
5 9 13 12 
20 21 9 5 
6 15 21 20 
16 18 15 6 
10 13 9 7 
7 9 21 19 
19 21 15 8 
8 15 18 14 
ZONE T="fuse:rgt:0:2",N=21,E=12,DATAPACKING=POINT, ZONETYPE = FEQUADRILATERAL
3.50996219943 -1.08494932434 -1.05976382242 
3.49143357155 -0.600386473291 -1.38353675589 
5.24724650846 -1.12107753944 -1.12282285802 
5.24633729326 -0.607177415426 -1.46586122587 
3.58795629109 -1.08755701979 -1.06513820959 
4.46580580041 -1.11090138757 -1.10803100582 
3.5707145039 -0.600483779962 -1.39055309495 
4.45994317066 -0.6038483026 -1.44655025189 
3.57993033035 -0.86082704644 -1.25199670498 
3.53101424138 -0.60042883657 -1.38708836798 
3.50133722127 -0.859387923464 -1.24567948246 
3.54889438477 -1.08626257485 -1.06248429221 
3.54057127265 -0.860109582802 -1.24887720761 
4.87572222784 -0.605895536476 -1.46038844716 
4.46307677619 -0.874870903773 -1.30241423722 
4.87822334461 -1.11786099832 -1.11863080982 
5.24682327204 -0.881859795792 -1.31980104228 
4.87705908658 -0.879543829506 -1.3148735779 
4.01845547745 -0.601792216271 -1.42354051088 
4.02928605589 -1.10064972285 -1.09040596581 
4.0242444783 -0.868434236711 -1.28169721475 
1 12 13 11 
11 13 10 2 
3 17 18 16 
14 18 17 4 
5 9 13 12 
20 21 9 5 
6 15 21 20 
16 18 15 6 
10 13 9 7 
7 9 21 19 
19 21 15 8 
8 15 18 14 
ZONE T="fuse:rgt:0:3",N=21,E=12,DATAPACKING=POINT, ZONETYPE = FEQUADRILATERAL
5.24724650846 -1.12107753944 -1.12282285802 
5.24633729326 -0.607177415426 -1.46586122587 
6.67578960927 -1.12274168148 -1.12448606575 
6.67578959426 -0.60807871746 -1.4680325673 
5.37290464747 -1.12148007593 -1.12322516851 
6.02378319393 -1.12258398079 -1.12432845359 
5.37221535716 -0.607395429845 -1.46638644796 
6.0236970195 -0.607993306508 -1.46782680239 
5.37258378491 -0.882176438253 -1.32027393061 
5.30927033436 -0.607291446633 -1.46613594031 
5.24682327204 -0.881859795792 -1.31980104228 
5.31006451909 -1.12128808387 -1.12303328424 
5.30969482874 -0.882025413837 -1.32004838384 
6.3497051459 -0.608068041091 -1.46800684669 
6.02374307857 -0.883044789707 -1.32157076636 
6.34971593084 -1.12272196889 -1.12446636423 
6.67578960065 -0.883168839914 -1.32175602861 
6.34971090888 -0.883153333638 -1.32173287083 
5.69784162121 -0.607790455497 -1.46733811071 
5.69813242424 -1.12220944164 -1.12395412473 
5.69799705536 -0.882750170463 -1.32113076851 
1 12 13 11 
11 13 10 2 
3 17 18 16 
14 18 17 4 
5 9 13 12 
20 21 9 5 
6 15 21 20 
16 18 15 6 
10 13 9 7 
7 9 21 19 
19 21 15 8 
8 15 18 14 
ZONE T="fuse:rgt:0:4",N=15,E=8,DATAPACKING=POINT, ZONETYPE = FEQUADRILATERAL
6.67578960927 -1.12274168148 -1.12448606575 
6.67578959426 -0.60807871746 -1.4680325673 
8.10631586822 -1.12274168148 -1.12448606575 
8.1063158532 -0.60807871746 -1.4680325673 
7.19958935707 -1.12274168148 -1.12448606575 
7.19958934206 -0.60807871746 -1.4680325673 
7.19958934845 -0.883168839914 -1.32175602861 
6.93768948537 -0.60807871746 -1.4680325673 
6.67578960065 -0.883168839914 -1.32175602861 
6.93768950038 -1.12274168148 -1.12448606575 
6.93768949176 -0.883168839914 -1.32175602861 
7.65295256784 -0.60807871746 -1.4680325673 
7.65295258286 -1.12274168148 -1.12448606575 
8.1063158596 -0.883168839914 -1.32175602861 
7.65295257423 -0.883168839914 -1.32175602861 
1 10 11 9 
9 11 8 2 
3 14 15 13 
12 15 14 4 
5 7 11 10 
13 15 7 5 
8 11 7 6 
6 7 15 12 
ZONE T="fuse:rgt:0:5",N=15,E=8,DATAPACKING=POINT, ZONETYPE = FEQUADRILATERAL
8.10631586822 -1.12274168148 -1.12448606575 
8.1063158532 -0.60807871746 -1.4680325673 
9.53684185716 -1.12274168148 -1.12448606575 
9.53684184214 -0.60807871746 -1.4680325673 
9.02777948104 -1.12274168148 -1.12448606575 
9.02777946602 -0.60807871746 -1.4680325673 
9.02777947242 -0.883168839914 -1.32175602861 
8.56704771658 -0.60807871746 -1.4680325673 
8.1063158596 -0.883168839914 -1.32175602861 
8.56704773159 -1.12274168148 -1.12448606575 
8.56704772297 -0.883168839914 -1.32175602861 
9.28231065864 -0.60807871746 -1.4680325673 
9.28231067366 -1.12274168148 -1.12448606575 
9.53684184853 -0.883168839914 -1.32175602861 
9.28231066504 -0.883168839914 -1.32175602861 
1 10 11 9 
9 11 8 2 
3 14 15 13 
12 15 14 4 
5 7 11 10 
13 15 7 5 
8 11 7 6 
6 7 15 12 
ZONE T="fuse:rgt:0:6",N=21,E=12,DATAPACKING=POINT, ZONETYPE = FEQUADRILATERAL
9.53684185716 -1.12274168148 -1.12448606575 
9.53684184214 -0.60807871746 -1.4680325673 
10.9673681161 -1.12274168148 -1.12448606575 
10.9673681011 -0.60807871746 -1.4680325673 
10.1964056451 -1.12274168148 -1.12448606575 
10.8559694867 -1.12274168148 -1.12448606575 
10.1964056301 -0.60807871746 -1.4680325673 
10.8559694717 -0.60807871746 -1.4680325673 
10.1964056365 -0.883168839914 -1.32175602861 
9.86662368971 -0.60807871746 -1.4680325673 
9.53684184853 -0.883168839914 -1.32175602861 
9.86662370473 -1.12274168148 -1.12448606575 
9.86662369611 -0.883168839914 -1.32175602861 
10.9116687886 -0.60807871746 -1.4680325673 
10.8559694781 -0.883168839914 -1.32175602861 
10.9116688037 -1.12274168148 -1.12448606575 
10.9673681075 -0.883168839914 -1.32175602861 
10.911668795 -0.883168839914 -1.32175602861 
10.5261875839 -0.60807871746 -1.4680325673 
10.5261875989 -1.12274168148 -1.12448606575 
10.5261875903 -0.883168839914 -1.32175602861 
1 12 13 11 
11 13 10 2 
3 17 18 16 
14 18 17 4 
5 9 13 12 
20 21 9 5 
6 15 21 20 
16 18 15 6 
10 13 9 7 
7 9 21 19 
19 21 15 8 
8 15 18 14 
ZONE T="fuse:rgt:0:7",N=15,E=8,DATAPACKING=POINT, ZONETYPE = FEQUADRILATERAL
10.9673681161 -1.12274168148 -1.12448606575 
10.9673681011 -0.60807871746 -1.4680325673 
12.397894375 -1.12274168148 -1.12448606575 
12.39789436 -0.60807871746 -1.4680325673 
11.6826312456 -1.12274168148 -1.12448606575 
11.6826312306 -0.60807871746 -1.4680325673 
11.682631237 -0.883168839914 -1.32175602861 
11.3249996152 -0.60807871746 -1.4680325673 
10.9673681075 -0.883168839914 -1.32175602861 
11.3249996302 -1.12274168148 -1.12448606575 
11.3249996216 -0.883168839914 -1.32175602861 
12.0402628459 -0.60807871746 -1.4680325673 
12.0402628609 -1.12274168148 -1.12448606575 
12.3978943664 -0.883168839914 -1.32175602861 
12.0402628523 -0.883168839914 -1.32175602861 
1 10 11 9 
9 11 8 2 
3 14 15 13 
12 15 14 4 
5 7 11 10 
13 15 7 5 
8 11 7 6 
6 7 15 12 
ZONE T="fuse:rgt:0:8",N=21,E=12,DATAPACKING=POINT, ZONETYPE = FEQUADRILATERAL
12.397894375 -1.12274168148 -1.12448606575 
12.39789436 -0.60807871746 -1.4680325673 
13.828421174 -1.12274168148 -1.12448606575 
13.828421159 -0.60807871746 -1.4680325673 
12.6731255148 -1.12274168148 -1.12448606575 
13.2507732378 -1.12274168148 -1.12448606575 
12.6731254998 -0.60807871746 -1.4680325673 
13.2507732227 -0.60807871746 -1.4680325673 
12.6731255062 -0.883168839914 -1.32175602861 
12.5355099164 -0.60807871746 -1.4680325673 
12.3978943664 -0.883168839914 -1.32175602861 
12.5355099314 -1.12274168148 -1.12448606575 
12.5355099228 -0.883168839914 -1.32175602861 
13.5395971775 -0.60807871746 -1.4680325673 
13.2507732291 -0.883168839914 -1.32175602861 
13.5395971926 -1.12274168148 -1.12448606575 
13.8284211654 -0.883168839914 -1.32175602861 
13.5395971839 -0.883168839914 -1.32175602861 
12.9619493213 -0.60807871746 -1.4680325673 
12.9619493363 -1.12274168148 -1.12448606575 
12.9619493277 -0.883168839914 -1.32175602861 
1 12 13 11 
11 13 10 2 
3 17 18 16 
14 18 17 4 
5 9 13 12 
20 21 9 5 
6 15 21 20 
16 18 15 6 
10 13 9 7 
7 9 21 19 
19 21 15 8 
8 15 18 14 
ZONE T="fuse:rgt:0:9",N=15,E=8,DATAPACKING=POINT, ZONETYPE = FEQUADRILATERAL
13.828421174 -1.12274168148 -1.12448606575 
13.828421159 -0.60807871746 -1.4680325673 
15.258947433 -1.12274168148 -1.12448606575 
15.2589474179 -0.60807871746 -1.4680325673 
14.7997093778 -1.12274168148 -1.12448606575 
14.7997093627 -0.60807871746 -1.4680325673 
14.7997093691 -0.883168839914 -1.32175602861 
14.3140653807 -0.60807871746 -1.4680325673 
13.8284211654 -0.883168839914 -1.32175602861 
14.3140653958 -1.12274168148 -1.12448606575 
14.3140653871 -0.883168839914 -1.32175602861 
15.0293283337 -0.60807871746 -1.4680325673 
15.0293283487 -1.12274168148 -1.12448606575 
15.2589474243 -0.883168839914 -1.32175602861 
15.0293283401 -0.883168839914 -1.32175602861 
1 10 11 9 
9 11 8 2 
3 14 15 13 
12 15 14 4 
5 7 11 10 
13 15 7 5 
8 11 7 6 
6 7 15 12 
ZONE T="fuse:rgt:0:10",N=15,E=8,DATAPACKING=POINT, ZONETYPE = FEQUADRILATERAL
15.258947433 -1.12274168148 -1.12448606575 
15.2589474179 -0.60807871746 -1.4680325673 
16.6894736919 -1.12274168148 -1.12448606575 
16.6894736769 -0.60807871746 -1.4680325673 
15.9742105624 -1.12274168148 -1.12448606575 
15.9742105474 -0.60807871746 -1.4680325673 
15.9742105538 -0.883168839914 -1.32175602861 
15.6165790839 -0.60807871746 -1.4680325673 
15.2589474243 -0.883168839914 -1.32175602861 
15.6165790989 -1.12274168148 -1.12448606575 
15.6165790903 -0.883168839914 -1.32175602861 
16.3318420109 -0.60807871746 -1.4680325673 
16.3318420259 -1.12274168148 -1.12448606575 
16.6894736833 -0.883168839914 -1.32175602861 
16.3318420173 -0.883168839914 -1.32175602861 
1 10 11 9 
9 11 8 2 
3 14 15 13 
12 15 14 4 
5 7 11 10 
13 15 7 5 
8 11 7 6 
6 7 15 12 
ZONE T="fuse:rgt:0:11",N=21,E=12,DATAPACKING=POINT, ZONETYPE = FEQUADRILATERAL
16.6894736919 -1.12274168148 -1.12448606575 
16.6894736769 -0.60807871746 -1.4680325673 
18.1199999508 -1.12274168148 -1.12448606575 
18.1199999358 -0.60807871746 -1.4680325673 
16.7374773618 -1.12274168148 -1.12448606575 
17.4287386309 -1.12274168148 -1.12448606575 
16.7374773468 -0.60807871746 -1.4680325673 
17.4287386159 -0.60807871746 -1.4680325673 
16.7374773532 -0.883168839914 -1.32175602861 
16.7134755127 -0.60807871746 -1.4680325673 
16.6894736833 -0.883168839914 -1.32175602861 
16.7134755277 -1.12274168148 -1.12448606575 
16.7134755191 -0.883168839914 -1.32175602861 
17.7743691781 -0.60807871746 -1.4680325673 
17.4287386223 -0.883168839914 -1.32175602861 
17.7743691931 -1.12274168148 -1.12448606575 
18.1199999422 -0.883168839914 -1.32175602861 
17.7743691845 -0.883168839914 -1.32175602861 
17.0831080664 -0.60807871746 -1.4680325673 
17.0831080814 -1.12274168148 -1.12448606575 
17.0831080728 -0.883168839914 -1.32175602861 
1 12 13 11 
11 13 10 2 
3 17 18 16 
14 18 17 4 
5 9 13 12 
20 21 9 5 
6 15 21 20 
16 18 15 6 
10 13 9 7 
7 9 21 19 
19 21 15 8 
8 15 18 14 
ZONE T="fuse:rgt:0:12",N=15,E=8,DATAPACKING=POINT, ZONETYPE = FEQUADRILATERAL
18.1199999508 -1.12274168148 -1.12448606575 
18.1199999358 -0.60807871746 -1.4680325673 
19.5505262098 -1.12274168148 -1.12448606575 
19.5505261948 -0.60807871746 -1.4680325673 
19.0516930801 -1.12274168148 -1.12448606575 
19.0516930651 -0.60807871746 -1.4680325673 
19.0516930715 -0.883168839914 -1.32175602861 
18.5858466124 -0.60807871746 -1.4680325673 
18.1199999422 -0.883168839914 -1.32175602861 
18.5858466274 -1.12274168148 -1.12448606575 
18.5858466188 -0.883168839914 -1.32175602861 
19.3011097113 -0.60807871746 -1.4680325673 
19.3011097263 -1.12274168148 -1.12448606575 
19.5505262012 -0.883168839914 -1.32175602861 
19.3011097177 -0.883168839914 -1.32175602861 
1 10 11 9 
9 11 8 2 
3 14 15 13 
12 15 14 4 
5 7 11 10 
13 15 7 5 
8 11 7 6 
6 7 15 12 
ZONE T="fuse:rgt:0:13",N=15,E=8,DATAPACKING=POINT, ZONETYPE = FEQUADRILATERAL
19.5505262098 -1.12274168148 -1.12448606575 
19.5505261948 -0.60807871746 -1.4680325673 
20.9810524687 -1.12274168148 -1.12448606575 
20.9810524537 -0.60807871746 -1.4680325673 
20.2657889343 -1.12274168148 -1.12448606575 
20.2657889192 -0.60807871746 -1.4680325673 
20.2657889256 -0.883168839914 -1.32175602861 
19.9081574051 -0.60807871746 -1.4680325673 
19.5505262012 -0.883168839914 -1.32175602861 
19.9081574201 -1.12274168148 -1.12448606575 
19.9081574115 -0.883168839914 -1.32175602861 
20.6234206359 -0.60807871746 -1.4680325673 
20.6234206509 -1.12274168148 -1.12448606575 
20.9810524601 -0.883168839914 -1.32175602861 
20.6234206422 -0.883168839914 -1.32175602861 
1 10 11 9 
9 11 8 2 
3 14 15 13 
12 15 14 4 
5 7 11 10 
13 15 7 5 
8 11 7 6 
6 7 15 12 
ZONE T="fuse:rgt:0:14",N=21,E=12,DATAPACKING=POINT, ZONETYPE = FEQUADRILATERAL
20.9810524687 -1.12274168148 -1.12448606575 
20.9810524537 -0.60807871746 -1.4680325673 
22.4115787277 -1.12274168148 -1.12448606575 
22.4115787127 -0.60807871746 -1.4680325673 
21.0127054755 -1.12274168148 -1.12448606575 
21.7121424974 -1.12274168148 -1.12448606575 
21.0127054604 -0.60807871746 -1.4680325673 
21.7121424824 -0.60807871746 -1.4680325673 
21.0127054668 -0.883168839914 -1.32175602861 
20.9968789571 -0.60807871746 -1.4680325673 
20.9810524601 -0.883168839914 -1.32175602861 
20.9968789721 -1.12274168148 -1.12448606575 
20.9968789635 -0.883168839914 -1.32175602861 
22.0618607438 -0.60807871746 -1.4680325673 
21.7121424888 -0.883168839914 -1.32175602861 
22.0618607589 -1.12274168148 -1.12448606575 
22.4115787191 -0.883168839914 -1.32175602861 
22.0618607502 -0.883168839914 -1.32175602861 
21.3624240231 -0.60807871746 -1.4680325673 
21.3624240381 -1.12274168148 -1.12448606575 
21.3624240294 -0.883168839914 -1.32175602861 
1 12 13 11 
11 13 10 2 
3 17 18 16 
14 18 17 4 
5 9 13 12 
20 21 9 5 
6 15 21 20 
16 18 15 6 
10 13 9 7 
7 9 21 19 
19 21 15 8 
8 15 18 14 
ZONE T="fuse:rgt:0:15",N=21,E=12,DATAPACKING=POINT, ZONETYPE = FEQUADRILATERAL
22.4115787277 -1.12274168148 -1.12448606575 
22.4115787127 -0.60807871746 -1.4680325673 
23.8421049866 -1.12274168148 -1.12448606575 
23.8421049716 -0.60807871746 -1.4680325673 
22.8408951228 -1.12274168148 -1.12448606575 
23.3414999158 -1.12274168148 -1.12448606575 
22.8408951078 -0.60807871746 -1.4680325673 
23.3414999008 -0.60807871746 -1.4680325673 
22.8408951141 -0.883168839914 -1.32175602861 
22.6262368482 -0.60807871746 -1.4680325673 
22.4115787191 -0.883168839914 -1.32175602861 
22.6262368632 -1.12274168148 -1.12448606575 
22.6262368546 -0.883168839914 -1.32175602861 
23.5918024189 -0.60807871746 -1.4680325673 
23.3414999072 -0.883168839914 -1.32175602861 
23.5918024339 -1.12274168148 -1.12448606575 
23.842104978 -0.883168839914 -1.32175602861 
23.5918024253 -0.883168839914 -1.32175602861 
23.0911974522 -0.60807871746 -1.4680325673 
23.0911974672 -1.12274168148 -1.12448606575 
23.0911974586 -0.883168839914 -1.32175602861 
1 12 13 11 
11 13 10 2 
3 17 18 16 
14 18 17 4 
5 9 13 12 
20 21 9 5 
6 15 21 20 
16 18 15 6 
10 13 9 7 
7 9 21 19 
19 21 15 8 
8 15 18 14 
ZONE T="fuse:rgt:0:16",N=15,E=8,DATAPACKING=POINT, ZONETYPE = FEQUADRILATERAL
23.8421049866 -1.12274168148 -1.12448606575 
23.8421049716 -0.60807871746 -1.4680325673 
25.2726312456 -1.12274168148 -1.12448606575 
25.2726312306 -0.60807871746 -1.4680325673 
24.6690859809 -1.12274168148 -1.12448606575 
24.6690859659 -0.60807871746 -1.4680325673 
24.6690859723 -0.883168839914 -1.32175602861 
24.255595547 -0.60807871746 -1.4680325673 
23.842104978 -0.883168839914 -1.32175602861 
24.255595562 -1.12274168148 -1.12448606575 
24.2555955534 -0.883168839914 -1.32175602861 
24.970858712 -0.60807871746 -1.4680325673 
24.970858727 -1.12274168148 -1.12448606575 
25.272631237 -0.883168839914 -1.32175602861 
24.9708587184 -0.883168839914 -1.32175602861 
1 10 11 9 
9 11 8 2 
3 14 15 13 
12 15 14 4 
5 7 11 10 
13 15 7 5 
8 11 7 6 
6 7 15 12 
ZONE T="fuse:rgt:0:17",N=21,E=12,DATAPACKING=POINT, ZONETYPE = FEQUADRILATERAL
25.2726312456 -1.12274168148 -1.12448606575 
25.2726312306 -0.60807871746 -1.4680325673 
26.7031575045 -1.12274168148 -1.12448606575 
26.7031574895 -0.60807871746 -1.4680325673 
25.8849530182 -1.12274168148 -1.12448606575 
26.4972754698 -1.12274168148 -1.12448606575 
25.8849530031 -0.60807871746 -1.4680325673 
26.4972754548 -0.60807871746 -1.4680325673 
25.8849530095 -0.883168839914 -1.32175602861 
25.5787920002 -0.60807871746 -1.4680325673 
25.272631237 -0.883168839914 -1.32175602861 
25.5787920152 -1.12274168148 -1.12448606575 
25.5787920066 -0.883168839914 -1.32175602861 
26.600216471 -0.60807871746 -1.4680325673 
26.4972754612 -0.883168839914 -1.32175602861 
26.600216486 -1.12274168148 -1.12448606575 
26.7031574959 -0.883168839914 -1.32175602861 
26.6002164773 -0.883168839914 -1.32175602861 
26.1911141759 -0.60807871746 -1.4680325673 
26.1911141909 -1.12274168148 -1.12448606575 
26.1911141823 -0.883168839914 -1.32175602861 
1 12 13 11 
11 13 10 2 
3 17 18 16 
14 18 17 4 
5 9 13 12 
20 21 9 5 
6 15 21 20 
16 18 15 6 
10 13 9 7 
7 9 21 19 
19 21 15 8 
8 15 18 14 
ZONE T="fuse:rgt:0:18",N=15,E=8,DATAPACKING=POINT, ZONETYPE = FEQUADRILATERAL
26.7031575045 -1.12274168148 -1.12448606575 
26.7031574895 -0.60807871746 -1.4680325673 
28.1336848481 -1.01868080903 -1.02026351573 
28.1336848344 -0.551719179999 -1.33196854451 
27.4184211754 -1.09022265884 -1.09191651887 
27.4184211609 -0.590466362003 -1.42551256018 
27.4184211671 -0.857588790671 -1.28347276637 
27.0607893248 -0.603235319709 -1.45633956535 
26.7031574959 -0.883168839914 -1.32175602861 
27.0607893397 -1.11379895025 -1.11552944036 
27.0607893311 -0.876134326372 -1.31122813149 
27.7760529975 -0.57241369766 -1.38192955288 
27.7760530116 -1.05689066063 -1.05853273331 
28.1336848402 -0.801312682334 -1.19924958944 
27.7760530035 -0.831369240196 -1.24423242257 
1 10 11 9 
9 11 8 2 
3 14 15 13 
12 15 14 4 
5 7 11 10 
13 15 7 5 
8 11 7 6 
6 7 15 12 
ZONE T="fuse:rgt:0:19",N=21,E=12,DATAPACKING=POINT, ZONETYPE = FEQUADRILATERAL
28.1336848481 -1.01868080903 -1.02026351573 
28.1336848344 -0.551719179999 -1.33196854451 
29.5642100338 -0.862589736054 -0.863929926758 
29.5642100223 -0.46718000146 -1.12787281851 
28.3157463578 -0.998815254281 -1.00036709621 
28.9399780387 -0.930702512303 -0.932148528645 
28.3157463444 -0.540959963294 -1.30599348558 
28.9399780263 -0.504069991658 -1.21693317445 
28.3157463501 -0.785686078964 -1.17586271677 
28.2247156123 -0.546339570293 -1.31898101178 
28.1336848402 -0.801312682334 -1.19924958944 
28.2247156258 -1.00874802916 -1.01031530347 
28.2247156181 -0.793499378684 -1.18755615016 
29.2520938504 -0.485625006834 -1.17240302129 
28.9399780316 -0.732107368644 -1.09567648264 
29.2520938624 -0.896646143151 -0.898039246703 
29.5642100272 -0.678528631366 -1.01549020817 
29.2520938555 -0.705318014929 -1.05558336774 
28.6278622807 -0.522514971841 -1.26146331641 
28.6278622936 -0.964758872888 -0.966257802007 
28.6278622862 -0.75889671562 -1.13576958745 
1 12 13 11 
11 13 10 2 
3 17 18 16 
14 18 17 4 
5 9 13 12 
20 21 9 5 
6 15 21 20 
16 18 15 6 
10 13 9 7 
7 9 21 19 
19 21 15 8 
8 15 18 14 
ZONE T="fuse:rgt:0:20",N=15,E=8,DATAPACKING=POINT, ZONETYPE = FEQUADRILATERAL
29.5642100338 -0.862589736054 -0.863929926758 
29.5642100223 -0.46718000146 -1.12787281851 
30.9947373796 -0.706498427381 -0.707596101727 
30.9947373702 -0.382640695269 -0.923776784324 
30.1536127691 -0.798277337858 -0.799517607505 
30.1536127585 -0.432348302186 -1.04378161874 
30.153612763 -0.627939339953 -0.939777957139 
29.8589113904 -0.449764151823 -1.08582721862 
29.5642100272 -0.678528631366 -1.01549020817 
29.8589114015 -0.830433536956 -0.831723767131 
29.8589113951 -0.653233985659 -0.977634082653 
30.5741750643 -0.407494498728 -0.983779201529 
30.5741750744 -0.75238788262 -0.753556854616 
30.9947373742 -0.555744394996 -0.831730549419 
30.5741750686 -0.591841867474 -0.885754253279 
1 10 11 9 
9 11 8 2 
3 14 15 13 
12 15 14 4 
5 7 11 10 
13 15 7 5 
8 11 7 6 
6 7 15 12 
ZONE T="fuse:rgt:0:21",N=21,E=12,DATAPACKING=POINT, ZONETYPE = FEQUADRILATERAL
30.9947373796 -0.706498427381 -0.707596101727 
30.9947373702 -0.382640695269 -0.923776784324 
32.4252625654 -0.550407354403 -0.551262512758 
32.425262558 -0.29810151673 -0.719681058319 
31.5979398124 -0.640680281778 -0.641675695614 
32.2011418843 -0.574862175569 -0.575755328955 
31.5979398039 -0.346993480755 -0.837716755683 
32.2011418766 -0.311346287576 -0.751656778551 
31.5979398075 -0.503970655536 -0.75424564601 
31.2963387536 -0.364817078167 -0.880746746236 
30.9947373742 -0.555744394996 -0.831730549419 
31.2963387626 -0.673589336402 -0.674635880465 
31.2963387574 -0.529857510968 -0.792988076315 
32.3132021837 -0.304723904135 -0.735668923219 
32.2011418798 -0.452196947064 -0.676760788978 
32.3132021913 -0.562634768645 -0.563508924521 
32.4252625611 -0.432960344028 -0.647971168144 
32.3132021869 -0.442578648425 -0.662365982868 
31.8995407639 -0.329169888676 -0.794686778007 
31.899540772 -0.607771237002 -0.608715520626 
31.8995407673 -0.478083807852 -0.715503227299 
1 12 13 11 
11 13 10 2 
3 17 18 16 
14 18 17 4 
5 9 13 12 
20 21 9 5 
6 15 21 20 
16 18 15 6 
10 13 9 7 
7 9 21 19 
19 21 15 8 
8 15 18 14 
ZONE T="fuse:rgt:0:22",N=21,E=12,DATAPACKING=POINT, ZONETYPE = FEQUADRILATERAL
32.4252625654 -0.550407354403 -0.551262512758 
32.425262558 -0.29810151673 -0.719681058319 
34.8094737283 -0.290255291128 -0.290706255737 
34.8094737245 -0.157202736904 -0.379521155433 
33.2701030138 -0.458222992041 -0.458934925152 
34.1149434221 -0.366038634052 -0.366607341925 
33.2701030077 -0.248174316414 -0.599146078301 
34.1149434172 -0.198247118466 -0.478611103999 
33.2701030103 -0.360446463313 -0.539446439166 
32.8476827828 -0.273137916572 -0.65941356831 
32.4252625611 -0.432960344028 -0.647971168144 
32.8476827896 -0.504315173222 -0.505098718955 
32.8476827857 -0.39670340367 -0.593708803655 
34.4622087253 -0.177724918556 -0.429066107676 
34.1149434193 -0.287932586036 -0.430921715335 
34.4622087297 -0.328146945734 -0.328656781949 
34.8094737261 -0.228320042778 -0.341705208965 
34.4622087272 -0.258126301148 -0.386313442306 
33.6925232325 -0.223210716256 -0.538878588292 
33.692523238 -0.412130810861 -0.41277113135 
33.6925232348 -0.324189522955 -0.485184074677 
1 12 13 11 
11 13 10 2 
3 17 18 16 
14 18 17 4 
5 9 13 12 
20 21 9 5 
6 15 21 20 
16 18 15 6 
10 13 9 7 
7 9 21 19 
19 21 15 8 
8 15 18 14 
ZONE T="fuse:rgt:0:23",N=15,E=8,DATAPACKING=POINT, ZONETYPE = FEQUADRILATERAL
34.8094737283 -0.290255291128 -0.290706255737 
34.8094737245 -0.157202736904 -0.379521155433 
35.9223650739 -0.168778722485 -0.169110797665 
36.0051080365 -0.0881670197646 -0.207176657902 
35.4850320912 -0.216536567681 -0.216881727615 
35.4953749589 -0.11687108031 -0.28144219599 
35.4951801426 -0.169735855343 -0.253358191556 
35.1634347502 -0.136310189838 -0.328993351323 
34.8094737261 -0.228320042778 -0.341705208965 
35.1621418948 -0.251773385562 -0.252165652855 
35.1634103995 -0.197975018483 -0.296206960807 
35.7832731284 -0.100338869794 -0.239844395996 
35.7483659426 -0.187789969363 -0.188111201917 
36.003549497 -0.127998696197 -0.186207213515 
35.7826156202 -0.145708449275 -0.215808432147 
1 10 11 9 
9 11 8 2 
3 14 15 13 
12 15 14 4 
5 7 11 10 
13 15 7 5 
8 11 7 6 
6 7 15 12 
ZONE T="fuse:rgt:1:0",N=21,E=12,DATAPACKING=POINT, ZONETYPE = FEQUADRILATERAL
0.184978162818 -0.689133044354 -0.369952269289 
0.170101748608 -0.654836043382 -0.383088086271 
1.02173883613 -0.635850612716 -0.838580331406 
0.123365743421 -0.544972264747 -0.400040451006 
0.153651835226 -0.616561183095 -0.393079187666 
1.00411322056 -0.555264506928 -0.86861295637 
0.984440371722 -0.465318240472 -0.891524950486 
0.947646692935 -0.297093792209 -0.907672747733 
1.01301181062 -0.595949765377 -0.854694373948 
0.499378215951 -0.606241278962 -0.606787547145 
0.177593521917 -0.672151645321 -0.37700378803 
0.516967238462 -0.661209400575 -0.585821335995 
0.50825597691 -0.633992887443 -0.597071217817 
0.994340855471 -0.51058425974 -0.881277579326 
0.479765511828 -0.544889274063 -0.622778960151 
0.161912523433 -0.635821610782 -0.388616102911 
0.489633498241 -0.57576484867 -0.61562749183 
0.138456862306 -0.5809504173 -0.398442448899 
0.966127778147 -0.381591197677 -0.903911979232 
0.443144295601 -0.430143480107 -0.634039278917 
0.46152359563 -0.487781581186 -0.63141969471 
1 12 13 11 
11 13 10 2 
2 10 17 16 
3 9 13 12 
18 21 20 4 
16 17 15 5 
5 15 21 18 
10 13 9 6 
6 14 17 10 
19 21 15 7 
15 17 14 7 
20 21 19 8 
ZONE T="fuse:rgt:1:1",N=49,E=36,DATAPACKING=POINT, ZONETYPE = FEQUADRILATERAL
1.02173883613 -0.635850612716 -0.838580331406 
1.00411322056 -0.555264506928 -0.86861295637 
3.49143357155 -0.600386473291 -1.38353675589 
0.947646692935 -0.297093792209 -0.907672747733 
0.984440371722 -0.465318240472 -0.891524950486 
3.48622579652 -0.464192081864 -1.43308626232 
3.48041313371 -0.312178569097 -1.4708877536 
3.46954184513 -0.0278711673424 -1.49752929536 
1.68565295455 -0.615038776414 -1.08139056924 
2.51217557175 -0.602946024311 -1.26556182167 
1.62343883466 -0.171612675117 -1.17048863885 
2.46973591318 -0.0805533492027 -1.36983415402 
1.67085297532 -0.509553128464 -1.12011911619 
1.65433396359 -0.391815211922 -1.14966525958 
2.50207969497 -0.478675193936 -1.31088621437 
2.49081117221 -0.339970176338 -1.34546435158 
1.67832499507 -0.562809341895 -1.1021704196 
1.32264349946 -0.530732885995 -1.00137268435 
1.01301181062 -0.595949765377 -0.854694373948 
1.33912066751 -0.624469743563 -0.96674984086 
1.33096227636 -0.578057523896 -0.985326770894 
1.66264725914 -0.451067552333 -1.13645077041 
1.3042524916 -0.426108394154 -1.02778657221 
0.994340855471 -0.51058425974 -0.881277579326 
1.31350788088 -0.478761321843 -1.01597298185 
2.97723756107 -0.469619542905 -1.37951118471 
2.50717676903 -0.541415424426 -1.28988068131 
2.98486808358 -0.600600558238 -1.33181405724 
3.48885502973 -0.532952123812 -1.41012260558 
2.98108995933 -0.535747523759 -1.35740601069 
1.63895713905 -0.282218138411 -1.16563894259 
1.26985621091 -0.230431596127 -1.04640241632 
0.966127778147 -0.381591197677 -0.903911979232 
1.28713310775 -0.328718033766 -1.04206684779 
2.96872074612 -0.323424945331 -1.41589948958 
2.49648212644 -0.409774341053 -1.32999930715 
3.48333839241 -0.388680316963 -1.4539810666 
2.97300688625 -0.396998287855 -1.39962484909 
3.47500238096 -0.170675843189 -1.49132456793 
2.95279194344 -0.0500005277889 -1.4415450529 
2.48032179816 -0.210855746114 -1.36415850733 
2.96079281645 -0.187338792901 -1.43557228563 
2.06825706066 -0.492159108657 -1.22377012566 
2.08079862759 -0.607871475706 -1.18145780523 
2.07458888276 -0.550578454189 -1.20416053373 
2.05425877823 -0.363006628872 -1.25605034238 
2.02807811189 -0.12145569508 -1.27880062802 
2.04122839032 -0.242784238015 -1.27350216154 
2.06130350104 -0.428003419387 -1.24161304107 
1 20 21 19 
19 21 18 2 
2 18 25 24 
3 29 30 28 
33 34 32 4 
24 25 23 5 
5 23 34 33 
6 26 30 29 
6 37 38 26 
7 35 38 37 
7 39 42 35 
40 42 39 8 
9 17 21 20 
44 45 17 9 
10 27 45 44 
28 30 27 10 
32 34 31 11 
11 31 48 47 
47 48 41 12 
12 41 42 40 
18 21 17 13 
13 22 25 18 
17 45 43 13 
13 43 49 22 
31 34 23 14 
14 46 48 31 
23 25 22 14 
22 49 46 14 
27 30 26 15 
15 43 45 27 
26 38 36 15 
36 49 43 15 
36 38 35 16 
16 46 49 36 
35 42 41 16 
41 48 46 16 
ZONE T="fuse:rgt:1:2",N=49,E=36,DATAPACKING=POINT, ZONETYPE = FEQUADRILATERAL
3.49143357155 -0.600386473291 -1.38353675589 
3.48622579652 -0.464192081864 -1.43308626232 
5.24633729326 -0.607177415426 -1.46586122587 
3.46954184513 -0.0278711673424 -1.49752929536 
3.48041313371 -0.312178569097 -1.4708877536 
5.24608174523 -0.462737298954 -1.51835907263 
5.24579651584 -0.301520311533 -1.55840986312 
5.24526305987 1.38707752759e-07 -1.58663665477 
3.5707145039 -0.600483779962 -1.39055309495 
4.45994317066 -0.6038483026 -1.44655025189 
3.55034319122 -0.0250024274074 -1.50512372561 
4.45301643389 -0.00476058581054 -1.56573460822 
3.5658684167 -0.463583802311 -1.44035388213 
3.56045945216 -0.310782748742 -1.47834707639 
4.45829538365 -0.461332659521 -1.49835650204 
4.45645620525 -0.302263675097 -1.53787967103 
3.5683150457 -0.532700071398 -1.41727376965 
3.52598873362 -0.463877241301 -1.43676507062 
3.48885502973 -0.532952123812 -1.41012260558 
3.53101424138 -0.60042883657 -1.38708836798 
3.52852594612 -0.53281762365 -1.41374246496 
3.56318154719 -0.387680831426 -1.46135465038 
3.52037950863 -0.311465035091 -1.47466360035 
3.48333839241 -0.388680316963 -1.4539810666 
3.52320238598 -0.388167427917 -1.45771351298 
4.87501924958 -0.461999188755 -1.51269029369 
4.4591272967 -0.533284092276 -1.47434696024 
4.87572222784 -0.605895536476 -1.46038844716 
5.24621076288 -0.53566033465 -1.49402901125 
4.87537415995 -0.5346476936 -1.48845106837 
3.55542448445 -0.168546935568 -1.49888753208 
3.50988870516 -0.0264119660933 -1.50137353237 
3.47500238096 -0.170675843189 -1.49132456793 
3.51515812724 -0.169591182906 -1.49515287707 
4.87423462046 -0.301389129396 -1.55259155492 
4.45738178314 -0.382316133054 -1.52020296503 
5.24594005921 -0.382653765388 -1.54049717882 
4.87462948986 -0.382217142921 -1.53474574746 
5.24553100897 -0.151450473876 -1.58006272772 
4.87276714858 -0.00100380285094 -1.58071296207 
4.45474419524 -0.154193319417 -1.5592472849 
4.87350424424 -0.151884254508 -1.57416357874 