title = GeoMACH PSM output
variables = x,y,z,
ZONE T="fuse:rgt:0:0",N=9,E=4,DATAPACKING=POINT, ZONETYPE = FEQUADRILATERAL
0.366149576623 -1.00284284277 -0.512829911558 
0.231516556783 -0.792826235266 -0.625705785482 
1.18878986201 -1.11732201529 -0.840359887195 
1.11045874044 -0.741330764946 -1.09710179061 
1.15232714501 -0.942300110578 -0.987785244895 
0.580748623068 -0.765084218468 -0.843996802611 
0.276181358999 -0.904753675951 -0.562895089956 
0.672866156214 -1.04859971483 -0.650679942898 
0.626573780271 -0.916583830495 -0.759841866736 
1 8 9 7 
7 9 6 2 
3 5 9 8 
6 9 5 4 
ZONE T="fuse:rgt:0:1",N=21,E=12,DATAPACKING=POINT, ZONETYPE = FEQUADRILATERAL
1.18878986201 -1.11732201529 -0.840359887195 
1.11045874044 -0.741330764946 -1.09710179061 
3.70322777954 -1.28255792131 -1.25778652608 
3.68199589755 -0.70741161023 -1.64205821442 
1.93151988213 -1.19212974986 -1.03973406463 
2.74592924315 -1.24438802772 -1.17216316155 
1.8708806352 -0.720273325484 -1.35738761887 
2.70526545169 -0.709538054057 -1.53027569166 
1.90329263733 -0.972483122256 -1.22213587825 
1.47228768292 -0.729719745449 -1.23558114424 
1.15232714501 -0.942300110578 -0.987785244895 
1.54257701668 -1.15681810743 -0.94643253597 
1.50985770851 -0.958006117135 -1.1124663482 
3.17833833731 -0.707534291082 -1.59268223304 
2.72700046524 -0.995418241746 -1.37779717401 
3.20913089832 -1.26493332567 -1.21996542899 
3.69334445084 -1.01483040701 -1.4784415506 
3.19479712502 -1.00546707312 -1.43398545193 
2.27115051454 -0.713908585568 -1.45118668646 
2.32191521345 -1.22002685553 -1.11158243232 
2.29828451754 -0.984431523092 -1.30658869314 
1 12 13 11 
11 13 10 2 
3 17 18 16 
14 18 17 4 
5 9 13 12 
20 21 9 5 
6 15 21 20 
16 18 15 6 
10 13 9 7 
7 9 21 19 
19 21 15 8 
8 15 18 14 
ZONE T="fuse:rgt:0:2",N=21,E=12,DATAPACKING=POINT, ZONETYPE = FEQUADRILATERAL
3.70322777954 -1.28255792131 -1.25778652608 
3.68199589755 -0.70741161023 -1.64205821442 
5.50514974843 -1.31879270897 -1.32084556143 
5.50411599701 -0.714260272236 -1.72438268427 
3.94481583402 -1.29013688784 -1.27303469765 
4.76980588925 -1.31008986978 -1.30842787752 
3.92785893311 -0.707856959073 -1.6619649198 
4.76393741788 -0.711309025974 -1.70817122079 
3.936922486 -1.01908871287 -1.49636472767 
3.80450919335 -0.707583612686 -1.65239277501 
3.69334445084 -1.01483040701 -1.4784415506 
3.82354968739 -1.28643475872 -1.26570261013 
3.81468643799 -1.01698266367 -1.48774636302 
5.15337151038 -0.713132485667 -1.71972122069 
4.76707414549 -1.03136060762 -1.53796697669 
5.15597430104 -1.31601627071 -1.31727496578 
5.50466854078 -1.03738611123 -1.55256311022 
5.15476271407 -1.03537711147 -1.54836612056 
4.35052834897 -0.70936036112 -1.68912251151 
4.36122592845 -1.30135093316 -1.29383691528 
4.35624626086 -1.02578250598 -1.52081630395 
1 12 13 11 
11 13 10 2 
3 17 18 16 
14 18 17 4 
5 9 13 12 
20 21 9 5 
6 15 21 20 
16 18 15 6 
10 13 9 7 
7 9 21 19 
19 21 15 8 
8 15 18 14 
ZONE T="fuse:rgt:0:3",N=21,E=12,DATAPACKING=POINT, ZONETYPE = FEQUADRILATERAL
5.50514974843 -1.31879270897 -1.32084556143 
5.50411599701 -0.714260272236 -1.72438268427 
7.00368434653 -1.32045719772 -1.32250876915 
7.00368432887 -0.715161762044 -1.7265540257 
5.88096014019 -1.31975858194 -1.32181069104 
6.44196728911 -1.32036987074 -1.32242150939 
5.88052624592 -0.714783390605 -1.72564267476 
6.44191303687 -0.715114465614 -1.72644010683 
5.88075816282 -1.03814588432 -1.55369755372 
5.69227052719 -0.714559158984 -1.72510258723 
5.50466854078 -1.03738611123 -1.55256311022 
5.6929615467 -1.31934456616 -1.3213969939 
5.69263987892 -1.03782021204 -1.55321128117 
6.72277466644 -0.71515584999 -1.72653978584 
6.44194203306 -1.03862673511 -1.55441552869 
6.72278146343 -1.32044628184 -1.32249786168 
7.00368433639 -1.03869542808 -1.55451809654 
6.72277829755 -1.03868684145 -1.55450527556 
6.16114753256 -0.715002136593 -1.72616954952 
6.16133059191 -1.32016246919 -1.32221426745 
6.16124537685 -1.0384635893 -1.55417193004 
1 12 13 11 
11 13 10 2 
3 17 18 16 
14 18 17 4 
5 9 13 12 
20 21 9 5 
6 15 21 20 
16 18 15 6 
10 13 9 7 
7 9 21 19 
19 21 15 8 
8 15 18 14 
ZONE T="fuse:rgt:0:4",N=15,E=8,DATAPACKING=POINT, ZONETYPE = FEQUADRILATERAL
7.00368434653 -1.32045719772 -1.32250876915 
7.00368432887 -0.715161762044 -1.7265540257 
8.50447376058 -1.32045719772 -1.32250876915 
8.50447374292 -0.715161762044 -1.7265540257 
7.86950009354 -1.32045719772 -1.32250876915 
7.86950007588 -0.715161762044 -1.7265540257 
7.8695000834 -1.03869542808 -1.55451809654 
7.43659223229 -0.715161762044 -1.7265540257 
7.00368433639 -1.03869542808 -1.55451809654 
7.43659224996 -1.32045719772 -1.32250876915 
7.43659223981 -1.03869542808 -1.55451809654 
8.18698688746 -0.715161762044 -1.7265540257 
8.18698690512 -1.32045719772 -1.32250876915 
8.50447375044 -1.03869542808 -1.55451809654 
8.18698689498 -1.03869542808 -1.55451809654 
1 10 11 9 
9 11 8 2 
3 14 15 13 
12 15 14 4 
5 7 11 10 
13 15 7 5 
8 11 7 6 
6 7 15 12 
ZONE T="fuse:rgt:0:5",N=21,E=12,DATAPACKING=POINT, ZONETYPE = FEQUADRILATERAL
8.50447376058 -1.32045719772 -1.32250876915 
8.50447374292 -0.715161762044 -1.7265540257 
10.0052628914 -1.32045719772 -1.32250876915 
10.0052628737 -0.715161762044 -1.7265540257 
9.18173090612 -1.32045719772 -1.32250876915 
9.85898786172 -1.32045719772 -1.32250876915 
9.18173088845 -0.715161762044 -1.7265540257 
9.85898784406 -0.715161762044 -1.7265540257 
9.18173089597 -1.03869542808 -1.55451809654 
8.84310234919 -0.715161762044 -1.7265540257 
8.50447375044 -1.03869542808 -1.55451809654 
8.84310236685 -1.32045719772 -1.32250876915 
8.84310235671 -1.03869542808 -1.55451809654 
9.93212535898 -0.715161762044 -1.7265540257 
9.85898785158 -1.03869542808 -1.55451809654 
9.93212537664 -1.32045719772 -1.32250876915 
10.0052628812 -1.03869542808 -1.55451809654 
9.9321253665 -1.03869542808 -1.55451809654 
9.52035938024 -0.715161762044 -1.7265540257 
9.5203593979 -1.32045719772 -1.32250876915 
9.52035938776 -1.03869542808 -1.55451809654 
1 12 13 11 
11 13 10 2 
3 17 18 16 
14 18 17 4 
5 9 13 12 
20 21 9 5 
6 15 21 20 
16 18 15 6 
10 13 9 7 
7 9 21 19 
19 21 15 8 
8 15 18 14 
ZONE T="fuse:rgt:0:6",N=15,E=8,DATAPACKING=POINT, ZONETYPE = FEQUADRILATERAL
10.0052628914 -1.32045719772 -1.32250876915 
10.0052628737 -0.715161762044 -1.7265540257 
11.5060523054 -1.32045719772 -1.32250876915 
11.5060522877 -0.715161762044 -1.7265540257 
10.7556575984 -1.32045719772 -1.32250876915 
10.7556575807 -0.715161762044 -1.7265540257 
10.7556575882 -1.03869542808 -1.55451809654 
10.3804601741 -0.715161762044 -1.7265540257 
10.0052628812 -1.03869542808 -1.55451809654 
10.3804601918 -1.32045719772 -1.32250876915 
10.3804601816 -1.03869542808 -1.55451809654 
11.1308549873 -0.715161762044 -1.7265540257 
11.130855005 -1.32045719772 -1.32250876915 
11.5060522953 -1.03869542808 -1.55451809654 
11.1308549949 -1.03869542808 -1.55451809654 
1 10 11 9 
9 11 8 2 
3 14 15 13 
12 15 14 4 
5 7 11 10 
13 15 7 5 
8 11 7 6 
6 7 15 12 
ZONE T="fuse:rgt:0:7",N=21,E=12,DATAPACKING=POINT, ZONETYPE = FEQUADRILATERAL
11.5060523054 -1.32045719772 -1.32250876915 
11.5060522877 -0.715161762044 -1.7265540257 
13.0068417195 -1.32045719772 -1.32250876915 
13.0068417018 -0.715161762044 -1.7265540257 
11.8484755103 -1.32045719772 -1.32250876915 
12.4276586726 -1.32045719772 -1.32250876915 
11.8484754927 -0.715161762044 -1.7265540257 
12.427658655 -0.715161762044 -1.7265540257 
11.8484755002 -1.03869542808 -1.55451809654 
11.6772638731 -0.715161762044 -1.7265540257 
11.5060522953 -1.03869542808 -1.55451809654 
11.6772638908 -1.32045719772 -1.32250876915 
11.6772638807 -1.03869542808 -1.55451809654 
12.7172502173 -0.715161762044 -1.7265540257 
12.4276586625 -1.03869542808 -1.55451809654 
12.7172502349 -1.32045719772 -1.32250876915 
13.0068417093 -1.03869542808 -1.55451809654 
12.7172502248 -1.03869542808 -1.55451809654 
12.1380670638 -0.715161762044 -1.7265540257 
12.1380670815 -1.32045719772 -1.32250876915 
12.1380670714 -1.03869542808 -1.55451809654 
1 12 13 11 
11 13 10 2 
3 17 18 16 
14 18 17 4 
5 9 13 12 
20 21 9 5 
6 15 21 20 
16 18 15 6 
10 13 9 7 
7 9 21 19 
19 21 15 8 
8 15 18 14 
ZONE T="fuse:rgt:0:8",N=15,E=8,DATAPACKING=POINT, ZONETYPE = FEQUADRILATERAL
13.0068417195 -1.32045719772 -1.32250876915 
13.0068417018 -0.715161762044 -1.7265540257 
14.5076317 -1.32045719772 -1.32250876915 
14.5076316824 -0.715161762044 -1.7265540257 
13.8212902564 -1.32045719772 -1.32250876915 
13.8212902387 -0.715161762044 -1.7265540257 
13.8212902463 -1.03869542808 -1.55451809654 
13.4140658791 -0.715161762044 -1.7265540257 
13.0068417093 -1.03869542808 -1.55451809654 
13.4140658967 -1.32045719772 -1.32250876915 
13.4140658866 -1.03869542808 -1.55451809654 
14.1644609402 -0.715161762044 -1.7265540257 
14.1644609579 -1.32045719772 -1.32250876915 
14.5076316899 -1.03869542808 -1.55451809654 
14.1644609478 -1.03869542808 -1.55451809654 
1 10 11 9 
9 11 8 2 
3 14 15 13 
12 15 14 4 
5 7 11 10 
13 15 7 5 
8 11 7 6 
6 7 15 12 
ZONE T="fuse:rgt:0:9",N=15,E=8,DATAPACKING=POINT, ZONETYPE = FEQUADRILATERAL
14.5076317 -1.32045719772 -1.32250876915 
14.5076316824 -0.715161762044 -1.7265540257 
16.0084211141 -1.32045719772 -1.32250876915 
16.0084210964 -0.715161762044 -1.7265540257 
15.2580264071 -1.32045719772 -1.32250876915 
15.2580263894 -0.715161762044 -1.7265540257 
15.2580263969 -1.03869542808 -1.55451809654 
14.8828291421 -0.715161762044 -1.7265540257 
14.5076316899 -1.03869542808 -1.55451809654 
14.8828291598 -1.32045719772 -1.32250876915 
14.8828291496 -1.03869542808 -1.55451809654 
15.6332236367 -0.715161762044 -1.7265540257 
15.6332236544 -1.32045719772 -1.32250876915 
16.008421104 -1.03869542808 -1.55451809654 
15.6332236442 -1.03869542808 -1.55451809654 
1 10 11 9 
9 11 8 2 
3 14 15 13 
12 15 14 4 
5 7 11 10 
13 15 7 5 
8 11 7 6 
6 7 15 12 
ZONE T="fuse:rgt:0:10",N=21,E=12,DATAPACKING=POINT, ZONETYPE = FEQUADRILATERAL
16.0084211141 -1.32045719772 -1.32250876915 
16.0084210964 -0.715161762044 -1.7265540257 
17.5092105281 -1.32045719772 -1.32250876915 
17.5092105105 -0.715161762044 -1.7265540257 
16.2722008702 -1.32045719772 -1.32250876915 
16.8907055977 -1.32045719772 -1.32250876915 
16.2722008526 -0.715161762044 -1.7265540257 
16.8907055801 -0.715161762044 -1.7265540257 
16.2722008601 -1.03869542808 -1.55451809654 
16.1403109961 -0.715161762044 -1.7265540257 
16.008421104 -1.03869542808 -1.55451809654 
16.1403110138 -1.32045719772 -1.32250876915 
16.1403110037 -1.03869542808 -1.55451809654 
17.1999579604 -0.715161762044 -1.7265540257 
16.8907055876 -1.03869542808 -1.55451809654 
17.1999579781 -1.32045719772 -1.32250876915 
17.509210518 -1.03869542808 -1.55451809654 
17.1999579679 -1.03869542808 -1.55451809654 
16.5814532504 -0.715161762044 -1.7265540257 
16.5814532681 -1.32045719772 -1.32250876915 
16.581453258 -1.03869542808 -1.55451809654 
1 12 13 11 
11 13 10 2 
3 17 18 16 
14 18 17 4 
5 9 13 12 
20 21 9 5 
6 15 21 20 
16 18 15 6 
10 13 9 7 
7 9 21 19 
19 21 15 8 
8 15 18 14 
ZONE T="fuse:rgt:0:11",N=15,E=8,DATAPACKING=POINT, ZONETYPE = FEQUADRILATERAL
17.5092105281 -1.32045719772 -1.32250876915 
17.5092105105 -0.715161762044 -1.7265540257 
19.0099999422 -1.32045719772 -1.32250876915 
19.0099999245 -0.715161762044 -1.7265540257 
18.1989707709 -1.32045719772 -1.32250876915 
18.1989707533 -0.715161762044 -1.7265540257 
18.1989707608 -1.03869542808 -1.55451809654 
17.8540907289 -0.715161762044 -1.7265540257 
17.509210518 -1.03869542808 -1.55451809654 
17.8540907465 -1.32045719772 -1.32250876915 
17.8540907364 -1.03869542808 -1.55451809654 
18.6044852248 -0.715161762044 -1.7265540257 
18.6044852425 -1.32045719772 -1.32250876915 
19.009999932 -1.03869542808 -1.55451809654 
18.6044852324 -1.03869542808 -1.55451809654 
1 10 11 9 
9 11 8 2 
3 14 15 13 
12 15 14 4 
5 7 11 10 
13 15 7 5 
8 11 7 6 
6 7 15 12 
ZONE T="fuse:rgt:0:12",N=15,E=8,DATAPACKING=POINT, ZONETYPE = FEQUADRILATERAL
19.0099999422 -1.32045719772 -1.32250876915 
19.0099999245 -0.715161762044 -1.7265540257 
20.5107893562 -1.32045719772 -1.32250876915 
20.5107893386 -0.715161762044 -1.7265540257 
19.7603950741 -1.32045719772 -1.32250876915 
19.7603950565 -0.715161762044 -1.7265540257 
19.760395064 -1.03869542808 -1.55451809654 
19.3851975436 -0.715161762044 -1.7265540257 
19.009999932 -1.03869542808 -1.55451809654 
19.3851975613 -1.32045719772 -1.32250876915 
19.3851975511 -1.03869542808 -1.55451809654 
20.1355923569 -0.715161762044 -1.7265540257 
20.1355923745 -1.32045719772 -1.32250876915 
20.5107893461 -1.03869542808 -1.55451809654 
20.1355923644 -1.03869542808 -1.55451809654 
1 10 11 9 
9 11 8 2 
3 14 15 13 
12 15 14 4 
5 7 11 10 
13 15 7 5 
8 11 7 6 
6 7 15 12 
ZONE T="fuse:rgt:0:13",N=21,E=12,DATAPACKING=POINT, ZONETYPE = FEQUADRILATERAL
20.5107893562 -1.32045719772 -1.32250876915 
20.5107893386 -0.715161762044 -1.7265540257 
22.0115787703 -1.32045719772 -1.32250876915 
22.0115787526 -0.715161762044 -1.7265540257 
20.6409118078 -1.32045719772 -1.32250876915 
21.3262449654 -1.32045719772 -1.32250876915 
20.6409117902 -0.715161762044 -1.7265540257 
21.3262449477 -0.715161762044 -1.7265540257 
20.6409117977 -1.03869542808 -1.55451809654 
20.5758505583 -0.715161762044 -1.7265540257 
20.5107893461 -1.03869542808 -1.55451809654 
20.5758505759 -1.32045719772 -1.32250876915 
20.5758505658 -1.03869542808 -1.55451809654 
21.6689118097 -0.715161762044 -1.7265540257 
21.3262449552 -1.03869542808 -1.55451809654 
21.6689118274 -1.32045719772 -1.32250876915 
22.0115787601 -1.03869542808 -1.55451809654 
21.6689118172 -1.03869542808 -1.55451809654 
20.9835782475 -0.715161762044 -1.7265540257 
20.9835782652 -1.32045719772 -1.32250876915 
20.9835782551 -1.03869542808 -1.55451809654 
1 12 13 11 
11 13 10 2 
3 17 18 16 
14 18 17 4 
5 9 13 12 
20 21 9 5 
6 15 21 20 
16 18 15 6 
10 13 9 7 
7 9 21 19 
19 21 15 8 
8 15 18 14 
ZONE T="fuse:rgt:0:14",N=15,E=8,DATAPACKING=POINT, ZONETYPE = FEQUADRILATERAL
22.0115787703 -1.32045719772 -1.32250876915 
22.0115787526 -0.715161762044 -1.7265540257 
23.5123681843 -1.32045719772 -1.32250876915 
23.5123681667 -0.715161762044 -1.7265540257 
22.6030393904 -1.32045719772 -1.32250876915 
22.6030393727 -0.715161762044 -1.7265540257 
22.6030393803 -1.03869542808 -1.55451809654 
22.3073090887 -0.715161762044 -1.7265540257 
22.0115787601 -1.03869542808 -1.55451809654 
22.3073091064 -1.32045719772 -1.32250876915 
22.3073090962 -1.03869542808 -1.55451809654 
23.0577039872 -0.715161762044 -1.7265540257 
23.0577040048 -1.32045719772 -1.32250876915 
23.5123681742 -1.03869542808 -1.55451809654 
23.0577039947 -1.03869542808 -1.55451809654 
1 10 11 9 
9 11 8 2 
3 14 15 13 
12 15 14 4 
5 7 11 10 
13 15 7 5 
8 11 7 6 
6 7 15 12 
ZONE T="fuse:rgt:0:15",N=21,E=12,DATAPACKING=POINT, ZONETYPE = FEQUADRILATERAL
23.5123681843 -1.32045719772 -1.32250876915 
23.5123681667 -0.715161762044 -1.7265540257 
25.0131575984 -1.32045719772 -1.32250876915 
25.0131575807 -0.715161762044 -1.7265540257 
24.0524470358 -1.32045719772 -1.32250876915 
24.5925264508 -1.32045719772 -1.32250876915 
24.0524470181 -0.715161762044 -1.7265540257 
24.5925264331 -0.715161762044 -1.7265540257 
24.0524470256 -1.03869542808 -1.55451809654 
23.7824075021 -0.715161762044 -1.7265540257 
23.5123681742 -1.03869542808 -1.55451809654 
23.7824075198 -1.32045719772 -1.32250876915 
23.7824075097 -1.03869542808 -1.55451809654 
24.8028419976 -0.715161762044 -1.7265540257 
24.5925264406 -1.03869542808 -1.55451809654 
24.8028420152 -1.32045719772 -1.32250876915 
25.0131575882 -1.03869542808 -1.55451809654 
24.8028420051 -1.03869542808 -1.55451809654 
24.322486675 -0.715161762044 -1.7265540257 
24.3224866926 -1.32045719772 -1.32250876915 
24.3224866825 -1.03869542808 -1.55451809654 
1 12 13 11 
11 13 10 2 
3 17 18 16 
14 18 17 4 
5 9 13 12 
20 21 9 5 
6 15 21 20 
16 18 15 6 
10 13 9 7 
7 9 21 19 
19 21 15 8 
8 15 18 14 
ZONE T="fuse:rgt:0:16",N=15,E=8,DATAPACKING=POINT, ZONETYPE = FEQUADRILATERAL
25.0131575984 -1.32045719772 -1.32250876915 
25.0131575807 -0.715161762044 -1.7265540257 
26.5139470124 -1.32045719772 -1.32250876915 
26.5139469948 -0.715161762044 -1.7265540257 
25.7635527303 -1.32045719772 -1.32250876915 
25.7635527127 -0.715161762044 -1.7265540257 
25.7635527202 -1.03869542808 -1.55451809654 
25.3883551998 -0.715161762044 -1.7265540257 
25.0131575882 -1.03869542808 -1.55451809654 
25.3883552175 -1.32045719772 -1.32250876915 
25.3883552073 -1.03869542808 -1.55451809654 
26.1387500131 -0.715161762044 -1.7265540257 
26.1387500307 -1.32045719772 -1.32250876915 
26.5139470023 -1.03869542808 -1.55451809654 
26.1387500206 -1.03869542808 -1.55451809654 
1 10 11 9 
9 11 8 2 
3 14 15 13 
12 15 14 4 
5 7 11 10 
13 15 7 5 
8 11 7 6 
6 7 15 12 
ZONE T="fuse:rgt:0:17",N=21,E=12,DATAPACKING=POINT, ZONETYPE = FEQUADRILATERAL
26.5139470124 -1.32045719772 -1.32250876915 
26.5139469948 -0.715161762044 -1.7265540257 
28.0147364265 -1.32045719772 -1.32250876915 
28.0147364088 -0.715161762044 -1.7265540257 
26.5820143777 -1.32045719772 -1.32250876915 
27.2983750324 -1.32045719772 -1.32250876915 
26.58201436 -0.715161762044 -1.7265540257 
27.2983750148 -0.715161762044 -1.7265540257 
26.5820143676 -1.03869542808 -1.55451809654 
26.5479806757 -0.715161762044 -1.7265540257 
26.5139470023 -1.03869542808 -1.55451809654 
26.5479806934 -1.32045719772 -1.32250876915 
26.5479806832 -1.03869542808 -1.55451809654 
27.6565556656 -0.715161762044 -1.7265540257 
27.2983750223 -1.03869542808 -1.55451809654 
27.6565556832 -1.32045719772 -1.32250876915 
28.0147364163 -1.03869542808 -1.55451809654 
27.6565556731 -1.03869542808 -1.55451809654 
26.9401945488 -0.715161762044 -1.7265540257 
26.9401945664 -1.32045719772 -1.32250876915 
26.9401945563 -1.03869542808 -1.55451809654 
1 12 13 11 
11 13 10 2 
3 17 18 16 
14 18 17 4 
5 9 13 12 
20 21 9 5 
6 15 21 20 
16 18 15 6 
10 13 9 7 
7 9 21 19 
19 21 15 8 
8 15 18 14 
ZONE T="fuse:rgt:0:18",N=15,E=8,DATAPACKING=POINT, ZONETYPE = FEQUADRILATERAL
28.0147364265 -1.32045719772 -1.32250876915 
28.0147364088 -0.715161762044 -1.7265540257 
29.5155269782 -1.21639632527 -1.21828621913 
29.5155269619 -0.658802224583 -1.59049000291 
28.568840554 -1.30179827568 -1.30382085707 
28.5688405366 -0.705056059577 -1.70215669043 
28.568840544 -1.02401798375 -1.53255174124 
28.2917884725 -0.712458055778 -1.72002669833 
28.0147364163 -1.03869542808 -1.55451809654 
28.29178849 -1.31546514055 -1.31750895591 
28.2917884799 -1.03476858594 -1.54864115996 
29.042183749 -0.68458146793 -1.65272663068 
29.0421837659 -1.2639944901 -1.2659583364 
29.5155269688 -0.956839270495 -1.43201165737 
29.0421837562 -0.994280844731 -1.48804695236 
1 10 11 9 
9 11 8 2 
3 14 15 13 
12 15 14 4 
5 7 11 10 
13 15 7 5 
8 11 7 6 
6 7 15 12 
ZONE T="fuse:rgt:0:19",N=21,E=12,DATAPACKING=POINT, ZONETYPE = FEQUADRILATERAL
29.5155269782 -1.21639632527 -1.21828621913 
29.5155269619 -0.658802224583 -1.59049000291 
31.016315266 -1.06030525229 -1.06195263016 
31.0163152518 -0.574263046044 -1.3863942769 
30.0291197013 -1.16297957097 -1.16478647215 
30.5427119219 -1.10956286893 -1.11128677751 
30.0291196857 -0.629871623732 -1.52064532158 
30.542711907 -0.600941051188 -1.4508007086 
30.0291196923 -0.914820688925 -1.36912638449 
29.7723234547 -0.644336916782 -1.55556764444 
29.5155269688 -0.956839270495 -1.43201165737 
29.7723234707 -1.1896879345 -1.191536332 
29.7723234615 -0.935829968998 -1.4005690049 
30.7795134636 -0.587602055142 -1.4185975085 
30.5427119134 -0.872802148465 -1.30624117312 
30.7795134781 -1.08493407266 -1.0866197159 
31.0163152578 -0.834055219527 -1.2482522761 
30.7795134698 -0.853428693474 -1.2772467388 
30.2859157911 -0.615406337759 -1.48572301581 
30.2859158063 -1.1362712205 -1.13803662538 
30.2859157976 -0.893811419129 -1.33768377945 
1 12 13 11 
11 13 10 2 
3 17 18 16 
14 18 17 4 
5 9 13 12 
20 21 9 5 
6 15 21 20 
16 18 15 6 
10 13 9 7 
7 9 21 19 
19 21 15 8 
8 15 18 14 
ZONE T="fuse:rgt:0:20",N=21,E=12,DATAPACKING=POINT, ZONETYPE = FEQUADRILATERAL
31.016315266 -1.06030525229 -1.06195263016 
31.0163152518 -0.574263046044 -1.3863942769 
32.5171058199 -0.904213943616 -0.905618805129 
32.5171058078 -0.489723739853 -1.18229824272 
31.6826600372 -0.99100135969 -0.992541061304 
32.3490048084 -0.92169746709 -0.923129492449 
31.6826600239 -0.536727945297 -1.2957764856 
32.3490047961 -0.49919284455 -1.2051586943 
31.6826600296 -0.779539528662 -1.16666375101 
31.3494876379 -0.555495495671 -1.34108538125 
31.0163152578 -0.834055219527 -1.2482522761 
31.3494876516 -1.02565330599 -1.02724684573 
31.3494876437 -0.806797374095 -1.20745801355 
32.433055302 -0.494458292202 -1.19372846851 
32.3490048013 -0.725023837797 -1.08507522592 
32.4330553142 -0.912955705353 -0.914374148789 
32.517105813 -0.711270983157 -1.06449261735 
32.4330553072 -0.718147410477 -1.07478392163 
32.01583241 -0.517960394924 -1.25046758995 
32.0158324228 -0.95634941339 -0.957835276877 
32.0158324155 -0.752281683229 -1.12586948846 
1 12 13 11 
11 13 10 2 
3 17 18 16 
14 18 17 4 
5 9 13 12 
20 21 9 5 
6 15 21 20 
16 18 15 6 
10 13 9 7 
7 9 21 19 
19 21 15 8 
8 15 18 14 
ZONE T="fuse:rgt:0:21",N=15,E=8,DATAPACKING=POINT, ZONETYPE = FEQUADRILATERAL
32.5171058199 -0.904213943616 -0.905618805129 
32.5171058078 -0.489723739853 -1.18229824272 
34.0178941077 -0.748122870638 -0.74928521616 
34.0178940977 -0.405184561314 -0.978202516712 
33.2674999638 -0.826168407127 -0.827452010644 
33.2674999528 -0.447454150584 -1.08025037971 
33.2674999575 -0.649878957673 -0.972612926712 
32.8923030928 -0.468588933251 -1.13127428232 
32.517105813 -0.711270983157 -1.06449261735 
32.8923031043 -0.865191153276 -0.866535385756 
32.8923030977 -0.680574953033 -1.01855274602 
33.6426968128 -0.426319367916 -1.02922647711 
33.6426968233 -0.787145660979 -0.788368635533 
34.017894102 -0.588486932189 -0.880733236075 
33.6426968173 -0.619182962312 -0.926673107407 
1 10 11 9 
9 11 8 2 
3 14 15 13 
12 15 14 4 
5 7 11 10 
13 15 7 5 
8 11 7 6 
6 7 15 12 
ZONE T="fuse:rgt:0:22",N=27,E=16,DATAPACKING=POINT, ZONETYPE = FEQUADRILATERAL
34.0178941077 -0.748122870638 -0.74928521616 
34.0178940977 -0.405184561314 -0.978202516712 
36.5192105646 -0.487970807364 -0.488728959139 
36.5192105581 -0.264285781488 -0.638042613827 
34.3225588263 -0.716435894397 -0.717549008414 
35.2493408005 -0.620044955088 -0.621008308175 
36.1761223154 -0.523654063543 -0.524467655774 
34.3225588167 -0.388022843538 -0.936770445695 
35.2493407922 -0.335817354318 -0.810735187155 
36.1761223084 -0.283611890967 -0.684699991069 
34.3225588208 -0.563561385637 -0.843429506672 
34.1702264572 -0.396603702426 -0.957486481204 
34.017894102 -0.588486932189 -0.880733236075 
34.170226467 -0.732279382518 -0.733417112287 
34.1702264614 -0.576024158913 -0.862081371373 
36.347666461 -0.273948834665 -0.661371298675 
36.1761223114 -0.411915723308 -0.616475656698 
36.3476664677 -0.505812432568 -0.506598304567 
36.5192105608 -0.383846630939 -0.574467276897 
36.3476664638 -0.397881174854 -0.5954714634 
35.2493407957 -0.487738535687 -0.72995255357 
34.7859498044 -0.361920098928 -0.873752816425 
34.7859498134 -0.668240424743 -0.669278658294 
34.7859498082 -0.525649960662 -0.786691030121 
35.7127317663 -0.309714610476 -0.747717559739 
35.7127317739 -0.571849486852 -0.572737959475 
35.7127317695 -0.449827111827 -0.673214078688 
1 14 15 13 
13 15 12 2 
3 19 20 18 
16 20 19 4 
5 11 15 14 
23 24 11 5 
6 21 24 23 
26 27 21 6 
7 17 27 26 
18 20 17 7 
12 15 11 8 
8 11 24 22 
22 24 21 9 
9 21 27 25 
25 27 17 10 
10 17 20 16 
ZONE T="fuse:rgt:0:23",N=15,E=8,DATAPACKING=POINT, ZONETYPE = FEQUADRILATERAL
36.5192105646 -0.487970807364 -0.488728959139 
36.5192105581 -0.264285781488 -0.638042613827 
37.6867637917 -0.366422045102 -0.367164175231 
37.7735708377 -0.19755657092 -0.462930173394 
37.2279503259 -0.414243059714 -0.414908265287 
37.2388012017 -0.224242438215 -0.539617661521 
37.2385968177 -0.32565558999 -0.48572017317 
36.8905570866 -0.243429273587 -0.587471560609 
36.5192105608 -0.383846630939 -0.574467276897 
36.8892007325 -0.449487773773 -0.450188835541 
36.8905315409 -0.353550749955 -0.528919017948 
37.5408400649 -0.208394971838 -0.497198128478 
37.5042183454 -0.385475028916 -0.386146845982 
37.7719357486 -0.286670456244 -0.415768590908 
37.540150263 -0.302561906825 -0.447220208758 
1 10 11 9 
9 11 8 2 
3 14 15 13 
12 15 14 4 
5 7 11 10 
13 15 7 5 
8 11 7 6 
6 7 15 12 
ZONE T="fuse:rgt:1:0",N=27,E=17,DATAPACKING=POINT, ZONETYPE = FEQUADRILATERAL
0.231516556783 -0.792826235266 -0.625705785482 
0.200742985977 -0.714867961863 -0.654203005968 
1.11045874044 -0.741330764946 -1.09710179061 
0.134542526615 -0.544972241943 -0.678436023792 
0.179264223184 -0.660117077606 -0.667406529618 
1.08135628454 -0.601638273415 -1.14642386593 
1.06091912959 -0.503539433285 -1.16907782147 
1.01790983491 -0.297093768113 -1.18749433978 
0.479672956791 -0.430143456488 -0.913682618557 
0.356533437023 -0.544579091691 -0.819572929513 
0.156860875194 -0.602774710799 -0.675806778606 
0.277815246511 -0.492703009676 -0.785600788806 
0.246270876078 -0.551404897841 -0.751552001876 
0.526601799927 -0.585792289381 -0.899449092907 
0.673037238328 -0.470387938904 -1.00586595106 
0.511039196891 -0.53421632606 -0.907552530375 
1.03950038488 -0.400728936481 -1.18324464237 
0.729807279056 -0.363028677569 -1.05140572992 
0.823048661952 -0.407062162376 -1.08904430995 
1.09608176407 -0.672320931575 -1.12421775686 
0.548929934197 -0.659758039393 -0.881986056913 
0.216284366321 -0.754321114019 -0.64134697865 
0.580748623068 -0.765084218468 -0.843996802611 
0.565026085943 -0.713052676928 -0.864879057395 
1.07118767084 -0.552828680918 -1.15883759888 
0.190043316916 -0.687623865135 -0.661421240596 
0.537818854086 -0.622955679095 -0.891553195597 
1 23 24 22 
22 24 21 2 
2 21 27 26 
3 20 24 23 
11 13 12 4 
26 27 14 5 
5 10 13 11 
5 14 16 10 
21 24 20 6 
6 25 27 21 
15 16 14 7 
7 17 19 15 
14 27 25 7 
18 19 17 8 
12 13 10 9 
9 15 19 18 
10 16 15 9 
ZONE T="fuse:rgt:1:1",N=49,E=36,DATAPACKING=POINT, ZONETYPE = FEQUADRILATERAL
1.11045874044 -0.741330764946 -1.09710179061 
1.08135628454 -0.601638273415 -1.14642386593 
3.68199589755 -0.70741161023 -1.64205821442 
1.01790983491 -0.297093768113 -1.18749433978 
1.06091912959 -0.503539433285 -1.16907782147 
3.67410759334 -0.493726794118 -1.71587973362 
3.66856804447 -0.343666956368 -1.74978644621 
3.65691025462 -0.0278711428929 -1.7773508874 
1.8708806352 -0.720273325484 -1.35738761887 
2.70526545169 -0.709538054057 -1.53027569166 
1.79923483868 -0.162770775343 -1.46922567288 
2.65722083443 -0.0776080667543 -1.65635836339 
1.84835126372 -0.54496392798 -1.41841128659 
1.83253004745 -0.421853169694 -1.44643986108 
2.69015758606 -0.510824585732 -1.59907183708 
2.67954811108 -0.371278354238 -1.63067036213 
1.8597508445 -0.633668296269 -1.39093680961 
1.4461730026 -0.571039365896 -1.29112879456 
1.09608176407 -0.672320931575 -1.12421775686 
1.47228768292 -0.729719745449 -1.23558114424 
1.45938670495 -0.651329658536 -1.26611976617 
1.84047933451 -0.483709524402 -1.43377016013 
1.42783400857 -0.459606310225 -1.31664219796 
1.07118767084 -0.552828680918 -1.15883759888 
1.43704833986 -0.515595264511 -1.30510942482 
3.16689794218 -0.500443142427 -1.66428397084 
2.69780197744 -0.611371121909 -1.56809798406 
3.17833833731 -0.707534291082 -1.59268223304 
3.67809897669 -0.601848645519 -1.68264332374 
3.17268663923 -0.605228680346 -1.63204696556 
1.81594894361 -0.292829440114 -1.4639677404 
1.3892402222 -0.225099242969 -1.3373833028 
1.03950038488 -0.400728936481 -1.18324464237 
1.40861419885 -0.34282115967 -1.3325971961 
3.15886394282 -0.355013697639 -1.6971711231 
2.68487878606 -0.441392626244 -1.6163869435 
3.67135136167 -0.419063734688 -1.73445966212 
3.16290058358 -0.428083959304 -1.68230520886 
3.66276243343 -0.186399791447 -1.77099026354 
3.14195666689 -0.0489623883181 -1.7239067132 
2.66842906692 -0.225029760801 -1.65043073696 
3.1504440736 -0.20259932201 -1.71773735067 
2.2522898462 -0.525869842445 -1.51642725097 
2.27115051454 -0.713908585568 -1.45118668646 
2.26183310894 -0.621015100829 -1.48705421498 
2.23904497118 -0.393819920521 -1.54639267412 
2.21117158487 -0.115925361001 -1.57075304601 
2.2251639495 -0.255427682063 -1.56513177635 
2.24569978909 -0.460167711107 -1.5328474633 
1 20 21 19 
19 21 18 2 
2 18 25 24 
3 29 30 28 
33 34 32 4 
24 25 23 5 
5 23 34 33 
6 26 30 29 
6 37 38 26 
7 35 38 37 
7 39 42 35 
40 42 39 8 
9 17 21 20 
44 45 17 9 
10 27 45 44 
28 30 27 10 
32 34 31 11 
11 31 48 47 
47 48 41 12 
12 41 42 40 
18 21 17 13 
13 22 25 18 
17 45 43 13 
13 43 49 22 
31 34 23 14 
14 46 48 31 
23 25 22 14 
22 49 46 14 
27 30 26 15 
15 43 45 27 
26 38 36 15 
36 49 43 15 
36 38 35 16 
16 46 49 36 
35 42 41 16 
41 48 46 16 
ZONE T="fuse:rgt:1:2",N=49,E=36,DATAPACKING=POINT, ZONETYPE = FEQUADRILATERAL
3.68199589755 -0.70741161023 -1.64205821442 
3.67410759334 -0.493726794118 -1.71587973362 
5.50411599701 -0.714260272236 -1.72438268427 
3.65691025462 -0.0278711428929 -1.7773508874 
3.66856804447 -0.343666956368 -1.74978644621 
5.50373192923 -0.489657592732 -1.80190524039 
5.50346221905 -0.331930701987 -1.83751186382 
5.50289462516 1.6317049141e-07 -1.86645824682 
3.92785893311 -0.707856959073 -1.6619649198 
4.76393741788 -0.711309025974 -1.70817122079 
3.90782421839 -0.0198880591805 -1.79889774888 
4.7570037814 -0.00384414861494 -1.84891108606 
3.92155891791 -0.491521781214 -1.73668137887 
3.9171347426 -0.339600730949 -1.77099914328 
4.76175710063 -0.48884324286 -1.7849649629 
4.76022597697 -0.332616984361 -1.82023683722 
3.92474664683 -0.600984682598 -1.70304204327 
3.79743505822 -0.49252233469 -1.72667890199 
3.67809897669 -0.601848645519 -1.68264332374 
3.80450919335 -0.707583612686 -1.65239277501 
3.80101448217 -0.601340658634 -1.69323331334 
3.9193576462 -0.415932665733 -1.75548655225 
3.79246725835 -0.34149587867 -1.76079901202 
3.67135136167 -0.419063734688 -1.73445966212 
3.79496330326 -0.417378329269 -1.74537576631 
5.15240449553 -0.489142331752 -1.79703421276 
4.76286031377 -0.601408154028 -1.75039037926 
5.15337151038 -0.713132485667 -1.71972122069 
5.50392626255 -0.603303746818 -1.76700252531 
5.15289379279 -0.602478555531 -1.76222584899 