TITLE = "Visualization of CSM meshes"
VARIABLES = "x"  "y"  "z" 

ZONE
T="Zone Title"
DATAPACKING=Block
ZONETYPE=FEQUADRILATERAL
N=24680 E=26011
0.217394589	1.85188816	0.875142249	0.494900364	1.3351337
6.10978553	2.69838665	3.62407361	4.40678297
5.23767265	2.26796998	5.67014285	3.15050553
4.00980049	4.81545042	8.92264701	6.83637275
7.5550932	8.26674113	6.47270172	8.60316563
7.19807709	7.91638112	11.3584214	9.6743989
10.4254303	11.1760623	9.29863309	11.2672421
10.0499846	10.8007761	13.7923686	12.1697372
12.9810529	11.7640793	13.3867107	12.575395
16.2263155	14.3167686	14.8411684	15.533742
14.0545686	15.8800287	14.5789685	15.1874552
18.6602627	16.9863014	17.7462876	18.5062736
16.6063084	18.5832682	17.3662945	18.1262807
21.09421	19.4715784	20.2828944	19.0659205
20.6885522	19.8772364	23.5281582	22.0444831
22.7863206	21.5693465	23.1572394	22.4154018
25.9621055	24.2939998	25.059841	25.8256825
23.9110791	25.893894	24.6769204	25.4427617
28.3960527	26.8087367	27.6553676	26.3854212
28.0257101	27.2320522	30.83	29.1376637
29.8792742	30.354637	28.7668583	29.508469
33.2639473	31.5042555	32.1785108	32.8527656
31.8413832	31.1671278	33.0583565	32.5156383
35.6978945	34.0752624	34.8865783	33.6696047
35.2922364	34.4809203	38.1318418	35.7589099
36.5498878	37.3408652	35.7284022	37.7363536
36.1543989	36.9453766	40.5657891	38.7779279
39.4240145	39.9949017	38.4548848	40.2803454
39.1009711	39.7094581	42.9997364	41.3771054
42.1884213	40.9714473	42.594079	41.7827634
45.4336836	43.0891203	43.8706409	44.6521621
43.0444283	45.0429228	43.4798805	44.2614014
47.8676327	46.0927493	46.7518149	47.3097238
45.7632164	47.5886783	46.4222821	47.0307693
50.3015782	48.6789482	49.4902628	48.2732907
49.8959203	49.0846055	52.7355273	50.3827551
51.1670125	51.9512699	50.3421666	52.3433986
50.7748838	51.5591412	55.1694727	53.2334514
54.2014617	54.6854669	53.7174566	52.9844894
59.2260527	55.6679696	56.1664665	56.9313635
57.6962605	58.4611571	55.4187212	58.843605
55.917218	56.548915	57.313812	58.0787089
61.2640067	59.4795714	60.5033431	59.3529808
60.9299003	60.0110088	0.222366311	0.343780359
1.85523038	1.88099356	0.914847663	0.878509012
0.876007084	0.498721749	0.218988885	0.495990896
0.888047978	0.563232143	0.233544583	0.508550241
1.33844094	1.85269842	1.33594156	1.86514233
1.36523283	1.34819346	6.11098339	6.12021691
2.72636044	3.64829582	4.42684527	5.25304428
3.62685509	2.70159893	4.40908676	5.2394378
2.69916541	2.27127646	2.26877157	2.7111255
2.29676416	2.28108242	5.67162649	5.23810057
6.11007593	5.67050253	5.68306292	5.24467266
6.11453584	5.67602646	3.62474793	3.15353864
3.15124086	4.40734148	4.01235394	4.01041953
4.81749029	4.81594495	3.63510405	3.1769191
3.16253388	4.41591905	4.03203699	4.01992667
4.83321442	4.82353989	8.92270858	8.9231831
6.84305084	7.55878419	8.26829565	7.55551706
6.83713961	8.26691965	6.83655867	6.47367407
6.47293745	6.83941386	6.48116928	6.47655773
8.60326854	8.26678442	8.92266194	8.60319058
8.92289115	8.60406168	8.26744905	8.60357369
7.55519596	7.19866046	7.19821852	7.91666735
7.91645052	7.55677404	7.20315725	7.20039053
7.91887362	7.91751618	11.3584214	11.3584214
9.67457631	10.4254605	11.1760625	11.1760623
9.67441929	10.4254338	9.67440385	9.29867035
9.29864213	9.6744797	9.2989575	9.29878083
11.2672421	11.1760623	11.3584214	11.2672421
11.3584214	11.2672422	11.1760624	11.2672422
10.4254311	10.0499942	10.0499869	10.8007769
10.8007763	10.4254441	10.0500679	10.0500225
10.8007826	10.8007791	13.7923687	13.7923687
12.1697372	12.9810529	12.1697372	12.9810529
12.1697372	11.7640793	11.7640793	12.1697372
11.7640793	11.7640793	13.3867108	12.9810529
13.7923686	13.3867107	13.7923687	13.3867108
12.9810529	13.3867108	12.5753951	12.575395
12.5753951	12.5753951	16.2263155	16.2263155
14.3167686	14.8411685	15.533742	14.8411685
14.3167686	15.533742	14.3167686	14.0545686
14.0545686	14.3167686	14.0545687	14.0545687
15.8800287	15.533742	16.2263155	15.8800287
16.2263155	15.8800288	15.533742	15.8800288
14.8411685	14.5789686	14.5789685	15.1874552
15.1874552	14.8411685	14.5789686	14.5789686
15.1874553	15.1874553	18.6602627	18.6602628
16.9863015	17.7462877	18.5062737	18.5062736
16.9863015	17.7462877	16.9863015	16.6063084
16.6063084	16.9863015	16.6063084	16.6063084
18.5832682	18.5062736	18.6602627	18.5832682
18.6602628	18.5832682	18.5062737	18.5832682
17.7462876	17.3662946	17.3662945	18.1262807
18.1262807	17.7462877	17.3662946	17.3662946
18.1262807	18.1262807	21.09421	21.09421
19.4715785	20.2828944	19.4715785	20.2828944
19.4715784	19.0659205	19.0659205	19.4715785
19.0659206	19.0659206	20.6885522	20.2828943
21.09421	20.6885522	21.09421	20.6885523
20.2828944	20.6885523	19.8772364	19.8772364
19.8772364	19.8772364	23.5281582	23.5281582
22.0444832	22.7863206	22.0444831	21.5693465
22.7863206	21.4034969	21.3317782	21.2645419
21.7351961	21.5693465	22.0444831	21.8069148
21.8741511	21.7093192	22.0444832	21.8698383
21.5693465	21.4383629	23.5281582	23.1572394
22.7863206	23.1572394	23.1572394	22.7863206
23.5281582	23.1572394	22.4154018	22.4154018
22.4154019	22.4154019	25.9621055	25.9621055
24.2939999	25.0598411	25.8256825	25.8256825
24.2939998	25.0598411	24.2939998	23.9110791
23.9110791	24.2939998	23.9110791	23.9110791
25.893894	25.8256825	25.9621055	25.893894
25.9621055	25.893894	25.8256825	25.893894
25.059841	24.6769204	24.6769204	25.4427617
25.4427617	25.0598411	24.6769205	24.6769205
25.4427617	25.4427617	28.3960527	28.3960528
26.8087368	27.6553677	27.6553676	26.8087368
26.8087367	26.3854212	26.3854212	26.8087368
26.3854213	26.3854212	28.0257101	27.6553676
28.3960527	28.0257101	28.3960528	28.0257101
27.6553676	28.0257101	27.2320522	27.2320522
27.2320522	27.2320522	30.83	30.83
29.1376637	29.8792743	29.8792742	29.1376637
30.354637	30.5205656	30.1887085	30.354637
30.83	30.5923185	30.6595868	30.1169556
29.8792742	30.0496873	29.8792743	30.2145977
30.0540022	29.1376637	28.7668583	28.7668583
29.1376637	28.7668583	28.7668583	30.354637
30.83	30.485683	29.508469	29.508469
29.508469	29.508469	33.2639473	33.2639473
31.5042556	32.1785109	32.8527656	32.8527656
31.8413832	32.0764229	31.6063435	31.8413832
32.0764229	31.6063435	31.8413832	31.8413833
31.3356917	31.2431002	31.1671278	31.2431003
33.0583565	32.8527656	33.2639473	33.0583565
33.2639473	33.0583565	32.8527656	33.0583565
32.3470746	32.4396659	32.5156383	32.4396659
35.6978946	35.6978946	34.0752624	34.8865783
34.0752624	34.8865783	34.0752624	33.6696047
33.6696047	34.0752624	33.6696047	33.6696047
35.2922364	34.8865783	35.6978946	35.2922364
35.6978946	35.2922364	34.8865783	35.2922364
34.4809203	34.4809203	34.4809203	34.4809203
38.1318418	38.1318419	35.7589099	36.5498878
37.3408653	35.7589099	36.5498878	37.3408652
35.7589099	35.7284022	35.7284022	35.7589099
35.7284023	35.7284023	37.7363537	37.3408652
38.1318418	37.7363536	38.1318418	37.7363537
37.3408652	37.7363537	36.5498878	36.1543989
36.1543989	36.9453766	36.9453766	36.5498878
36.1543989	36.1543989	36.9453766	36.9453766
40.5657891	40.5657891	38.7779279	39.4240145
39.9949018	39.4240145	38.7779279	39.9949017
38.7779279	38.4548848	38.4548848	38.7779279
38.4548848	38.4548848	40.2803454	39.9949017
40.5657891	40.2803454	40.5657891	40.2803454
39.9949017	40.2803454	39.4240145	39.1009711
39.1009711	39.7094581	39.7094581	39.4240145
39.1009712	39.1009712	39.7094581	39.7094581
42.9997364	42.9997364	41.3771055	42.1884214
41.3771054	42.1884213	41.3771054	40.9714473
40.9714473	41.3771054	40.9714473	40.9714473
42.594079	42.1884213	42.9997364	42.594079
42.9997364	42.594079	42.1884214	42.594079
41.7827635	41.7827635	41.7827635	41.7827635
45.4336836	45.4336837	43.0891204	43.8706409
44.6521621	43.0891204	43.8706409	44.6521621
43.0891204	43.0444284	43.0444284	43.0891204
43.0444284	43.0444284	45.0429229	44.6521621
45.4336836	45.0429228	45.4336837	45.0429229
44.6521621	45.0429229	43.8706409	43.4798805
43.4798805	44.2614014	44.2614014	43.8706409
43.4798805	43.4798805	44.2614015	44.2614014
47.8676328	47.8676328	46.0927493	46.7518149
47.3097239	46.7518149	46.0927493	47.3097238
46.0927493	45.7632165	45.7632165	46.0927493
45.7632165	45.7632165	47.5886783	47.3097238
47.8676327	47.5886783	47.8676328	47.5886783
47.3097238	47.5886783	46.7518149	46.4222821
46.4222821	47.0307694	47.0307693	46.7518149
46.4222821	46.4222821	47.0307694	47.0307694
50.3015782	50.3015782	48.6789482	49.4902628
48.6789482	49.4902628	48.6789482	48.2732907
48.2732907	48.6789482	48.2732907	48.2732907
49.8959203	49.4902628	50.3015782	49.8959203
50.3015782	49.8959203	49.4902628	49.8959203
49.0846055	49.0846055	49.0846055	49.0846055
52.7355273	52.7355273	50.3827551	51.1670125
51.95127	50.3827551	51.1670125	51.9512699
50.3827551	50.3421666	50.3421666	50.3827551
50.3421667	50.3421667	52.3433986	51.9512699
52.7355273	52.3433986	52.7355273	52.3433986
51.9512699	52.3433986	51.1670125	50.7748838
50.7748838	51.5591412	51.5591412	51.1670125
50.7748838	50.7748838	51.5591412	51.5591412
55.1694727	55.1694727	53.2334514	54.2014618
53.2334514	53.8787917	54.5241319	54.7970982
54.404937	54.630428	55.1694727	54.8468022
54.946075	53.9979864	53.6058255	53.7724956
53.2334514	53.5561216	53.4568489	54.2014617
54.2014617	53.9765016	54.4264219	54.2014617
52.9844894	52.9844894	53.2334514	52.9844895
52.9844895	54.685467	55.1694727	54.7740877
53.7174567	53.628836	59.2260527	59.2260527
55.6679696	56.1664665	56.9313635	57.6962606
58.4611571	56.1664665	57.1863292	58.2061918
55.493966	55.3481791	55.8419732	55.6679696
55.6679696	55.493966	55.4187212	55.3481792
55.8419732	55.6679696	59.2260527	58.8043112
58.9645386	58.7161224	58.366847	58.6301138
56.1664665	55.98776	56.5882088	56.4279811
57.475399	57.0256737	57.271473	56.6763978
56.7624066	57.9171221	58.121048	57.6962606
57.6962605	56.1664665	55.917218	55.9877601
57.0001	57.313812	57.4720213	57.2666478
57.9204998	57.6962606	58.078709	58.3924208
58.1258732	59.2260527	58.843605	58.787207
56.548915	56.6053131	61.262083	61.1195649
59.4794073	60.4790257	59.4795692	60.5030192
59.4795706	59.3529805	59.3529806	59.4795655
59.3529602	59.35298	60.929001	60.5032192
61.2632708	60.9295563	61.2588519	60.8623818
60.5024752	60.9274907	60.0109408	60.0109828
60.0058998	60.0108265	0.262220575	1.9131155
0.931037665	0.915971414	0.545392843	0.254513853
0.533285493	1.39499767	1.89594615	1.37828663
6.13172939	2.75723347	3.67502845	4.44898684
5.27000903	2.74073167	2.32854261	2.31155686
5.69732201	5.26094127	6.12557591	5.68970045
3.66073972	3.20607021	3.19048879	4.43715205
4.05657811	4.04346075	4.85281949	4.84234047
8.92377472	6.85042102	7.56285768	8.27001124
6.84648162	6.4905144	6.48551938	8.60505056
8.26909425	8.9234585	8.604522	7.56068038
7.2087639	7.20576712	7.92162441	7.9201541
11.3584214	9.67477206	10.4254939	11.1760628
9.67466743	9.2993155	9.29912415	11.2672422
11.1760627	11.3584214	11.2672422	10.425476
10.0501597	10.0501106	10.8007898	10.800786
13.7923687	12.1697372	12.981053	12.1697372
11.7640794	11.7640794	13.3867108	12.9810529
13.7923687	13.3867108	12.5753951	12.5753951
16.2263155	14.3167687	14.8411685	15.533742
14.3167687	14.0545687	14.0545687	15.8800288
15.533742	16.2263155	15.8800288	14.8411685
14.5789686	14.5789686	15.1874553	15.1874553
18.6602628	16.9863015	17.7462877	18.5062737
16.9863015	16.6063085	16.6063085	18.5832682
18.5062737	18.6602628	18.5832682	17.7462877
17.3662946	17.3662946	18.1262807	18.1262807
21.0942101	19.4715785	20.2828944	19.4715785
19.0659206	19.0659206	20.6885523	20.2828944
21.0942101	20.6885523	19.8772365	19.8772364
23.5281582	22.0444832	22.7863206	22.0444832
21.8069148	21.7093192	21.8698383	21.5693465
21.3317783	21.4383629	23.1572394	22.7863206
23.5281582	23.1572394	22.4154019	22.4154019
25.9621055	24.2939999	25.0598411	25.8256825
24.2939999	23.9110792	23.9110791	25.893894
25.8256825	25.9621055	25.893894	25.0598411
24.6769205	24.6769205	25.4427617	25.4427617
28.3960528	26.8087368	27.6553677	26.8087368
26.3854213	26.3854213	28.0257101	27.6553677
28.3960528	28.0257101	27.2320522	27.2320522
30.8300001	29.1376637	29.8792743	30.2145977
30.1169556	29.8792743	30.0540022	29.1376637
28.7668584	28.7668583	30.354637	30.5923185
30.8300001	30.485683	29.508469	29.508469
33.2639473	31.5042556	32.1785109	32.8527657
31.7329573	31.6728194	31.440465	31.6160227
31.1671278	31.159154	33.0583565	32.8527657
33.2639473	33.0583565	32.0099471	32.2121061
31.8413833	31.9373818	32.5156384	32.5198377
35.6978946	34.0752624	34.8865784	34.0752624
33.6696048	33.6696048	35.2922365	34.8865783
35.6978946	35.2922364	34.4809203	34.4809203
38.1318419	35.75891	36.5498878	37.3408653
35.7589099	35.7284023	35.7284023	37.7363537
37.3408653	38.1318419	37.7363537	36.5498878
36.1543989	36.1543989	36.9453766	36.9453766
40.5657891	38.7779279	39.4240145	39.9949018
38.7779279	38.4548848	38.4548848	40.2803455
39.9949018	40.5657891	40.2803454	39.4240145
39.1009712	39.1009712	39.7094581	39.7094581
42.9997364	41.3771055	42.1884214	41.3771055
40.9714473	40.9714473	42.594079	42.1884214
42.9997364	42.594079	41.7827635	41.7827635
45.4336837	43.0891204	43.8706409	44.6521622
43.0891204	43.0444284	43.0444284	45.0429229
44.6521621	45.4336837	45.0429229	43.8706409
43.4798805	43.4798805	44.2614015	44.2614015
47.8676328	46.0927493	46.7518149	47.3097239
46.0927493	45.7632165	45.7632165	47.5886783
47.3097239	47.8676328	47.5886783	46.7518149
46.4222821	46.4222821	47.0307694	47.0307694
50.3015782	48.6789482	49.4902629	48.6789482
48.2732907	48.2732907	49.8959203	49.4902628
50.3015782	49.8959203	49.0846055	49.0846055
52.7355273	50.3827551	51.1670125	51.95127
50.3827551	50.3421667	50.3421667	52.3433986
51.95127	52.7355273	52.3433986	51.1670125
50.7748838	50.7748838	51.5591413	51.5591413
55.1694727	53.8787917	54.5241319	53.2334514
54.2014617	54.2014617	54.0401267	53.9110587
54.0723937	54.4918648	54.3627968	54.3305298
53.2334514	52.9844895	52.9844895	54.685467
54.8468022	55.1694727	54.7822681	53.7174567
53.5561216	53.6206556	59.2260527	57.1863292
58.2061918	55.6679696	56.1664665	56.9313635
57.6962605	58.4611571	57.1280392	57.0588464
56.8370933	57.0121725	57.6962605	57.4412949
57.4074824	57.520648	57.313812	57.2772145
57.9850387	57.9512262	57.8718731	58.5554272
58.3336745	58.2644817	58.3803482	58.078709
58.1153065	55.6679696	55.4187212	55.4187212
58.843605	59.2260527	58.8553888	56.1664665
55.9172181	55.9172181	56.548915	56.5371312
61.2603466	59.4795672	60.5027269	59.4795642
59.3529802	59.3529799	60.9281894	60.5022804
61.2576949	60.9269498	60.0108794	60.0107856
0.280166392	0.282980601	1.94668232	1.95106786
0.964806755	0.960852693	0.945602428	0.570277749
0.270645031	0.557431734	0.962824857	0.573727088
0.281538056	0.571987193	1.42771347	1.9295651
1.41102444	1.94887455	1.43199516	1.42985324
6.1437597	6.14533148	2.79371022	3.70661329
4.4751473	5.29005303	3.70296354	2.78949519
4.47212436	5.28773687	2.7730435	2.36175049
2.34481631	2.7916022	2.36608914	2.36391929
5.71222248	5.27869664	6.13762491	5.70462406
6.1445454	5.71416925	5.28889466	5.71319563
3.68871819	3.23653256	3.22099844	4.4603255
4.08222311	4.06914558	4.87330642	4.86285922
3.70478797	3.2405125	3.23852205	4.47363546
4.08557366	4.08389798	4.87598305	4.87464441
8.92439293	8.9244737	6.85912895	7.56767053
8.27203822	7.56711439	6.85812271	8.27180399
6.85419528	6.50027986	6.49530001	6.85862571
6.50155573	6.50091764	8.6060839	8.27088979
8.92407768	8.60555695	8.92443331	8.60621891
8.27192108	8.60615139	7.5649437	7.21462273
7.21163505	7.92449892	7.92303308	7.56739239
7.2153882	7.21500537	7.92487448	7.92468665
11.3584214	11.3584214	9.67500333	10.4255332
11.1760631	11.1760631	9.6749766	10.4255287
9.6748723	9.29968959	9.29949882	9.67498996
9.29973846	9.29971402	11.2672423	11.1760629
11.3584214	11.2672422	11.3584214	11.2672423
11.1760631	11.2672423	10.4255109	10.0502557
10.0502068	10.8007972	10.8007934	10.4255309
10.0502683	10.050262	10.8007982	10.8007977
13.7923687	13.7923687	12.1697373	12.981053
12.1697373	12.981053	12.1697372	11.7640794
11.7640794	12.1697372	11.7640794	11.7640794
13.3867108	12.9810529	13.7923687	13.3867108
13.7923687	13.3867108	12.9810529	13.3867108
12.5753951	12.5753951	12.5753951	12.5753951
16.2263155	16.2263155	14.3167687	14.8411685
15.533742	14.8411685	14.3167687	15.533742
14.3167687	14.0545687	14.0545687	14.3167687
14.0545687	14.0545687	15.8800288	15.533742
16.2263155	15.8800288	16.2263155	15.8800288
15.533742	15.8800288	14.8411685	14.5789686
14.5789686	15.1874553	15.1874553	14.8411685
14.5789686	14.5789686	15.1874553	15.1874553
18.6602628	18.6602628	16.9863015	17.7462877
18.5062737	18.5062737	16.9863015	17.7462877
16.9863015	16.6063085	16.6063085	16.9863015
16.6063085	16.6063085	18.5832682	18.5062737
18.6602628	18.5832682	18.6602628	18.5832682
18.5062737	18.5832682	17.7462877	17.3662946
17.3662946	18.1262807	18.1262807	17.7462877
17.3662946	17.3662946	18.1262807	18.1262807
21.0942101	21.0942101	19.4715785	20.2828944
19.4715785	20.2828944	19.4715785	19.0659206
19.0659206	19.4715785	19.0659206	19.0659206
20.6885523	20.2828944	21.0942101	20.6885523
21.0942101	20.6885523	20.2828944	20.6885523
19.8772365	19.8772365	19.8772365	19.8772365
23.5281583	23.5281583	22.0444832	22.7863206
22.0444832	21.5693465	22.7863206	21.403497
21.3317783	21.264542	21.7351961	21.5693465
21.5693465	22.0444832	21.7093192	21.8069148
21.8698384	22.0444832	21.8741512	21.438363
23.5281583	23.1572394	22.7863206	23.1572394
23.1572394	22.7863206	23.5281583	23.1572394
22.4154019	22.4154019	22.4154019	22.4154019
25.9621055	25.9621055	24.2939999	25.0598411
25.8256825	25.8256825	24.2939999	25.0598411
24.2939999	23.9110792	23.9110792	24.2939999
23.9110792	23.9110792	25.893894	25.8256825
25.9621055	25.893894	25.9621055	25.893894
25.8256825	25.893894	25.0598411	24.6769205
24.6769205	25.4427617	25.4427617	25.0598411
24.6769205	24.6769205	25.4427617	25.4427617
28.3960528	28.3960528	26.8087368	27.6553677
27.6553677	26.8087368	26.8087368	26.3854213
26.3854213	26.8087368	26.3854213	26.3854213
28.0257101	27.6553677	28.3960528	28.0257101
28.3960528	28.0257101	27.6553677	28.0257101
27.2320522	27.2320522	27.2320522	27.2320522
30.8300001	30.8300001	29.1376637	29.8792743
29.8792743	29.1376637	30.3546371	30.8300001
30.5923185	30.5205656	30.6595869	30.1887085
30.3546371	30.3546371	30.1169557	30.2145977
29.8792743	30.0540022	29.8792743	30.0496873
29.1376637	28.7668584	28.7668584	29.1376637
28.7668584	28.7668584	30.8300001	30.485683
29.508469	29.508469	29.508469	29.508469
33.2639473	33.2639473	31.5042556	32.1785109
32.8527657	32.8527657	31.8413833	31.2190588
31.1671278	31.0634071	31.3356917	31.628791
31.3931968	32.076423	31.6063436	31.8413833
32.0539755	31.8413833	31.8413833	32.4637075
32.5156384	32.8527657	32.619359	32.3470746
32.2895696	31.2431003	33.0583565	32.8527657
33.2639473	33.0583565	33.2639473	33.0583565
33.0583565	32.439666	35.6978946	35.6978946
34.0752624	34.8865784	34.0752624	34.8865784
34.0752624	33.6696048	33.6696048	34.0752624
33.6696048	33.6696048	35.2922365	34.8865783
35.6978946	35.2922365	35.6978946	35.2922365
34.8865783	35.2922365	34.4809203	34.4809203
34.4809203	34.4809203	38.1318419	38.1318419
35.75891	36.5498878	37.3408653	35.75891
36.5498878	37.3408653	35.75891	35.7284023
35.7284023	35.75891	35.7284023	35.7284023
37.7363537	37.3408653	38.1318419	37.7363537
38.1318419	37.7363537	37.3408653	37.7363537
36.5498878	36.1543989	36.1543989	36.9453766
36.9453766	36.5498878	36.1543989	36.1543989
36.9453766	36.9453766	40.5657892	40.5657892
38.7779279	39.4240146	39.9949018	39.4240146
38.7779279	39.9949018	38.7779279	38.4548848
38.4548848	38.7779279	38.4548848	38.4548848
40.2803455	39.9949018	40.5657892	40.2803455
40.5657892	40.2803455	39.9949018	40.2803455
39.4240146	39.1009712	39.1009712	39.7094581
39.7094581	39.4240146	39.1009712	39.1009712
39.7094581	39.7094581	42.9997364	42.9997364
41.3771055	42.1884214	41.3771055	42.1884214
41.3771055	40.9714473	40.9714473	41.3771055
40.9714473	40.9714473	42.594079	42.1884214
42.9997364	42.594079	42.9997364	42.594079
42.1884214	42.594079	41.7827635	41.7827635
41.7827635	41.7827635	45.4336837	45.4336837
43.0891204	43.8706409	44.6521622	43.0891204
43.8706409	44.6521622	43.0891204	43.0444284
43.0444284	43.0891204	43.0444284	43.0444284
45.0429229	44.6521621	45.4336837	45.0429229
45.4336837	45.0429229	44.6521621	45.0429229
43.8706409	43.4798806	43.4798805	44.2614015
44.2614015	43.8706409	43.4798806	43.4798806
44.2614015	44.2614015	47.8676328	47.8676328
46.0927493	46.7518149	47.3097239	46.7518149
46.0927493	47.3097239	46.0927493	45.7632165
45.7632165	46.0927493	45.7632165	45.7632165
47.5886783	47.3097239	47.8676328	47.5886783
47.8676328	47.5886783	47.3097239	47.5886783
46.7518149	46.4222821	46.4222821	47.0307694
47.0307694	46.7518149	46.4222821	46.4222821
47.0307694	47.0307694	50.3015782	50.3015782
48.6789482	49.4902629	48.6789482	49.4902629
48.6789482	48.2732907	48.2732907	48.6789482
48.2732907	48.2732907	49.8959203	49.4902628
50.3015782	49.8959203	50.3015782	49.8959203
49.4902628	49.8959203	49.0846055	49.0846055
49.0846055	49.0846055	52.7355273	52.7355273
50.3827551	51.1670125	51.95127	50.3827551
51.1670125	51.95127	50.3827551	50.3421667
50.3421667	50.3827551	50.3421667	50.3421667
52.3433986	51.95127	52.7355273	52.3433986
52.7355273	52.3433986	51.95127	52.3433986
51.1670125	50.7748838	50.7748838	51.5591413
51.5591413	51.1670125	50.7748838	50.7748838
51.5591413	51.5591413	55.1694727	55.1694727
53.2334514	54.2014617	53.2334514	53.8787917
54.5241319	54.7970982	54.4049371	54.630428
55.1694727	54.8468022	54.946075	55.1694727
54.7970982	54.946075	54.4049371	54.685467
54.630428	53.9979865	53.6058255	53.7724956
53.2334514	53.5561216	53.4568489	54.2014618
54.2014618	53.6058255	53.7174567	53.9979865
53.7724956	53.2334514	53.4568489	54.2014618
52.9844895	52.9844895	52.9844895	52.9844895
59.2260527	59.2260527	55.6679696	56.1664665
56.9313635	57.6962605	58.4611571	56.1664665
57.1863292	58.2061918	55.493966	55.3481792
55.8419732	55.6679696	55.6679696	55.493966
55.4187212	55.3481792	55.8419732	55.6679696
59.2260527	58.8043113	58.9645387	58.7161224
58.366847	58.6301138	58.8043113	58.366847
58.6301138	59.2260527	58.843605	58.9645387
56.1664665	55.9877601	56.5882089	56.4279811
57.475399	57.0256738	57.271473	56.6763979
56.7624066	57.9171221	58.121048	57.6962606
57.6962606	56.1664665	55.9172181	55.9877601
56.548915	56.5882089	56.4279811	57.0256738
57.313812	57.475399	57.271473	56.7624066
57.9171221	58.078709	58.121048	57.6962606
61.2635014	61.263586	59.4795709	60.5032722
59.4795708	60.503258	59.4795693	59.3529807
59.3529805	59.4795709	59.3529807	59.3529807
60.9296641	60.5030316	61.2621566	60.9290354
61.2635679	60.9297036	60.5032692	60.9296951
60.010991	60.0109434	60.010994	60.0109933
0.300858053	0.313211232	0.306084518	1.97425299
1.98061347	1.9890202	0.999759665	0.991963526
0.986085719	0.975482222	0.593228204	0.291674389
0.583416137	0.989036335	0.5987139	0.30346803
0.59597729	1.45467813	1.96274151	1.44341117
0.99589279	0.606056742	0.309645222	0.602403999
1.97744798	1.46090588	1.45780622	1.98485522
1.46914062	1.4650603	6.153641	6.15592059
6.15893355	2.83018697	3.73819812	4.50130775
5.31009702	3.7259085	3.73120183	2.82210709
4.495513	5.30565712	2.81599391	4.49112875
5.30229793	2.80493	2.38902635	2.37763796
2.81906468	2.39531881	2.39218718	5.72446124
5.29621829	6.1495153	5.71935124	2.82618392
2.40363566	2.3995152	6.15478608	5.72728469
5.3039853	5.72587951	6.15744083	5.73101648
5.30789733	5.72916762	3.71632837	3.26155333
3.2511065	4.48319391	4.10328706	4.09449231
4.8901337	4.88310786	3.26732555	3.73473192
3.27495478	3.271175	4.10814646	4.49843683
4.11456919	4.11138715	4.8940157	4.89914661
4.89660458	4.49333105	3.72856745	4.10572803
3.26445283	4.8920837	8.92490071	8.92501785
8.92517268	6.86783686	7.57248338	8.27406518
7.5706107	7.57141729	6.86590799	8.2736162
6.86444863	8.2732765	6.86180739	6.50830089
6.5049519	6.8651817	6.51015131	6.50923039
8.60693266	8.27266169	8.9246887	8.60657828
6.86688124	6.51259705	6.51138535	8.92495955
8.60712846	8.27344713	8.60703101	8.92509597
8.60738726	8.27384274	8.60725904	7.5691509
7.21943498	7.21742574	7.92685994	7.92587415
7.22054515	7.5719552	7.22201248	7.22128551
7.92740462	7.92812453	7.92776786	7.57101587
7.92713354	7.21999264	11.3584214	11.3584214
11.3584214	9.67523458	10.4255726	11.1760634
11.1760633	11.1760633	9.67518336	10.4255639
9.6751446	10.4255573	9.67507446	9.29999685
9.29986856	9.67516407	9.30006773	9.30003246
11.2672423	11.1760632	11.3584214	11.2672423
9.67520921	9.30016142	9.300115	11.2672423
11.1760633	11.3584214	11.2672423	11.3584214
11.2672423	11.1760634	11.2672423	10.4255453
10.0503346	10.0503016	10.8008033	10.8008008
10.0503527	10.4255683	10.0503768	10.0503649
10.8008047	10.8008066	10.8008057	10.4255606
10.800804	10.0503437	13.7923687	13.7923687
13.7923687	12.1697372	12.981053	12.1697372
12.981053	12.1697372	12.981053	12.1697372
11.7640794	11.7640794	12.1697372	11.7640794
11.7640794	13.3867108	12.9810529	13.7923687
13.3867108	12.1697372	11.7640794	11.7640794
13.7923687	13.3867108	12.9810529	13.3867108
13.7923687	13.3867108	12.9810529	13.3867108
12.5753951	12.5753951	12.5753951	12.5753951
12.5753951	12.5753951	16.2263155	16.2263155
16.2263155	14.3167687	14.8411685	15.533742
14.8411685	14.8411685	14.3167687	15.533742
14.3167687	15.533742	14.3167687	14.0545687
14.0545687	14.3167687	14.0545687	14.0545687
15.8800288	15.533742	16.2263155	15.8800288
14.3167687	14.0545687	14.0545687	16.2263155
15.8800288	15.533742	15.8800288	16.2263155
15.8800288	15.533742	15.8800288	14.8411685
14.5789686	14.5789686	15.1874553	15.1874553
14.5789686	14.8411685	14.5789686	14.5789686
15.1874553	15.1874553	15.1874553	14.8411685
15.1874553	14.5789686	18.6602628	18.6602628
18.6602628	16.9863015	17.7462877	18.5062737
18.5062737	18.5062737	16.9863015	17.7462877
16.9863015	17.7462877	16.9863015	16.6063085
16.6063085	16.9863015	16.6063085	16.6063085
18.5832682	18.5062737	18.6602628	18.5832682
16.9863015	16.6063085	16.6063085	18.5832682
18.5062737	18.6602628	18.5832682	18.6602628
18.5832682	18.5062737	18.5832682	17.7462877
17.3662946	17.3662946	18.1262807	18.1262807
17.3662946	17.7462877	17.3662946	17.3662946
18.1262807	18.1262807	18.1262807	17.7462877
18.1262807	17.3662946	21.0942101	21.0942101
21.0942101	19.4715785	20.2828944	19.4715785
20.2828944	19.4715785	20.2828944	19.4715785
19.0659206	19.0659206	19.4715785	19.0659206
19.0659206	20.6885523	20.2828944	21.0942101
20.6885523	19.4715785	19.0659206	19.0659206
21.0942101	20.6885523	20.2828944	20.6885523
21.0942101	20.6885523	20.2828944	20.6885523
19.8772365	19.8772365	19.8772365	19.8772365
19.8772365	19.8772365	23.5281583	23.5281582
23.5281582	22.0444832	22.7863206	22.0444832
22.0444832	21.5693465	22.7863206	21.5693465
22.7863206	21.403497	21.3317783	21.264542
21.7351961	21.5693465	21.3317783	21.403497
21.264542	21.5693465	21.7351961	21.5693465
22.0444832	21.8069148	21.8741512	21.8069148
22.0444832	21.8741512	21.5693465	21.3317783
23.5281583	23.1572394	22.7863206	23.1572394
23.5281583	23.1572394	22.7863206	23.1572394
23.1572394	22.7863206	23.5281582	23.1572394
22.4154019	22.4154019	22.4154019	22.4154019
22.4154019	22.0444832	21.8069148	22.4154019
25.9621055	25.9621055	25.9621055	24.2939999
25.0598411	25.8256825	25.8256825	25.8256825
24.2939999	25.0598411	24.2939999	25.0598411
24.2939999	23.9110792	23.9110792	24.2939999
23.9110792	23.9110792	25.893894	25.8256825
25.9621055	25.893894	24.2939999	23.9110792
23.9110792	25.893894	25.8256825	25.9621055
25.893894	25.9621055	25.893894	25.8256825
25.893894	25.0598411	24.6769205	24.6769205
25.4427617	25.4427617	24.6769205	25.0598411
24.6769205	24.6769205	25.4427617	25.4427617
25.4427617	25.0598411	25.4427617	24.6769205
28.3960528	28.3960528	28.3960528	26.8087368
27.6553677	27.6553677	27.6553677	26.8087368
26.8087368	26.8087368	26.3854213	26.3854213
26.8087368	26.3854213	26.3854213	28.0257101
27.6553677	28.3960528	28.0257101	26.8087368
26.3854213	26.3854213	28.0257101	27.6553677
28.3960528	28.0257101	28.3960528	28.0257101
27.6553677	28.0257101	27.2320522	27.2320522
27.2320522	27.2320522	27.2320522	27.2320522
30.8300001	30.8300001	30.8300001	29.1376637
29.8792743	29.8792743	29.8792743	29.1376637
30.3546371	29.1376637	30.3546371	30.5205656
30.1887085	30.3546371	30.8300001	30.5923185
30.6595869	30.8300001	30.5923185	30.5205656
30.6595869	30.1887085	30.354637	30.3546371
30.1169557	29.8792743	30.0496873	29.8792743
30.1169557	30.0496873	29.1376637	28.7668584
28.7668584	29.1376637	28.7668584	28.7668584
29.1376637	28.7668584	28.7668584	30.8300001
30.3546371	30.5923185	29.508469	29.508469
29.508469	29.508469	29.508469	29.8792743
30.1169557	29.508469	33.2639473	33.2639473
33.2639473	31.5042556	32.1785109	32.8527657
32.8527657	32.8527657	31.8413833	31.8413833
31.2190588	31.1671278	31.0634071	31.628791
31.3356917	31.3931968	32.076423	31.6063436
31.8413833	31.8413833	32.0539755	31.8413833
32.4637075	32.5156384	32.8527657	32.619359
32.3470746	32.2895696	31.3356917	31.2431003
31.8413833	31.3356917	33.0583565	32.8527657
33.2639473	33.0583565	33.0583565	32.8527657
33.2639473	33.0583565	33.2639473	33.0583565
33.0583565	32.3470746	32.439666	32.3470746
35.6978946	35.6978946	35.6978946	34.0752624
34.8865784	34.0752624	34.8865784	34.0752624
34.8865784	34.0752624	33.6696048	33.6696048
34.0752624	33.6696048	33.6696048	35.2922365
34.8865783	35.6978946	35.2922365	34.0752624
33.6696048	33.6696048	35.6978946	35.2922365
34.8865783	35.2922365	35.6978946	35.2922365
34.8865783	35.2922365	34.4809203	34.4809203
34.4809203	34.4809203	34.4809203	34.4809203
38.1318419	38.1318419	38.1318419	35.75891
36.5498878	37.3408653	35.75891	35.75891
36.5498878	37.3408653	36.5498878	37.3408653
35.75891	35.7284023	35.7284023	35.75891
35.7284023	35.7284023	37.7363537	37.3408653
38.1318419	37.7363537	35.75891	35.7284023
35.7284023	38.1318419	37.7363537	37.3408653
37.7363537	38.1318419	37.7363537	37.3408653
37.7363537	36.5498878	36.1543989	36.1543989
36.9453766	36.9453766	36.1543989	36.5498878
36.1543989	36.1543989	36.9453766	36.9453766
36.9453766	36.5498878	36.1543989	36.9453766
40.5657892	40.5657892	40.5657891	38.7779279
39.4240145	39.9949018	39.4240146	39.4240145
38.7779279	39.9949018	38.7779279	39.9949018
38.7779279	38.4548848	38.4548848	38.7779279
38.4548848	38.4548848	40.2803455	39.9949018
40.5657892	40.2803455	38.7779279	38.4548848
38.4548848	40.5657892	40.2803455	39.9949018