title = GeoMACH PSM output
variables = x,y,z,
ZONE T="fuse:rgt:0:0",N=9,E=4,DATAPACKING=POINT, ZONETYPE = FEQUADRILATERAL
0.713029850259 -1.85362741316 -1.43943680074 
0.424780204439 -1.26196022768 -1.82226688085 
1.33644794077 -2.01464082814 -1.76682325907 
1.15822204693 -1.22732009078 -2.30661290468 
1.25348474323 -1.64814725961 -2.07677921307 
0.711078339757 -1.23800103209 -2.05188916601 
0.561335547508 -1.58530535014 -1.63691440214 
0.941993694372 -1.91985513979 -1.5771612575 
0.832314381404 -1.60334269878 -1.84696400532 
1 8 9 7 
7 9 6 2 
3 5 9 8 
6 9 5 4 
ZONE T="fuse:rgt:0:1",N=33,E=23,DATAPACKING=POINT, ZONETYPE = FEQUADRILATERAL
1.33644794077 -2.01464082814 -1.76682325907 
1.15822204693 -1.22732009078 -2.30661290468 
3.55387595204 -2.20654543975 -2.18424989009 
3.53588055135 -1.74165564046 -2.56743551258 
3.51521729371 -1.2078447503 -2.85156932423 
1.91056042701 -2.10302432332 -1.95629915281 
2.64877068667 -2.16438872306 -2.09511536013 
1.78644470338 -1.21661063868 -2.55397638533 
2.57116178455 -1.20881069031 -2.73520292359 
1.85278522239 -1.69040352082 -2.2994950961 
2.61264415712 -1.71957228852 -2.4626640018 
1.60520776784 -2.06214189725 -1.86704019563 
1.60815152605 -1.79824812409 -2.12465323202 
1.88300246107 -1.90620996715 -2.13781741179 
1.68774042369 -1.94003350113 -2.03226946214 
1.8205159658 -1.45994189669 -2.43901805834 
1.45482032368 -1.22185677847 -2.4374475441 
1.25348474323 -1.64814725961 -2.07677921307 
1.52041958064 -1.55243758679 -2.27321520494 
3.05646500635 -1.73124240141 -2.5214128671 
2.63153883613 -1.95221750036 -2.28951389779 
3.08314394102 -2.18737743222 -2.14509605107 
3.54529239654 -1.9847995026 -2.38691891454 
3.07041846118 -1.96980739728 -2.34413212529 
3.52582955975 -1.48200014676 -2.72321588904 
3.0258308587 -1.20748419634 -2.80045342863 
2.59246636285 -1.47112839689 -2.61208731614 
3.04156398937 -1.47647671973 -2.67440079725 
2.25954982229 -2.13634098071 -2.03169233009 
2.21302488334 -1.70609361473 -2.38811459137 
2.23735807582 -1.9311190001 -2.22020606279 
2.15960251063 -1.21206098642 -2.65240325334 
2.1870392521 -1.46578700358 -2.53301458424 
1 13 19 18 
1 12 15 13 
18 19 17 2 
3 23 24 22 
4 20 24 23 
4 25 28 20 
26 28 25 5 
14 15 12 6 
6 29 31 14 
7 21 31 29 
22 24 21 7 
17 19 16 8 
8 16 33 32 
32 33 27 9 
9 27 28 26 
13 15 14 10 
10 16 19 13 
14 31 30 10 
10 30 33 16 
21 24 20 11 
11 30 31 21 
20 28 27 11 
27 33 30 11 
ZONE T="fuse:rgt:0:2",N=35,E=24,DATAPACKING=POINT, ZONETYPE = FEQUADRILATERAL
3.55387595204 -2.20654543975 -2.18424989009 
3.53588055135 -1.74165564046 -2.56743551258 
5.24923577208 -2.24381569617 -2.24730892385 
3.51521729371 -1.2078447503 -2.85156932423 
5.24838804355 -1.76502586308 -2.64155707096 
5.24741464412 -1.21525422388 -2.93389379322 
3.6751976772 -2.21092070743 -2.19281306339 
4.50218507322 -2.23394571832 -2.2332808689 
3.64094272936 -1.20813170728 -2.8627486692 
4.49069696582 -1.21195410424 -2.91557996707 
3.65925218004 -1.7441278215 -2.57750093398 
4.49683741778 -1.75821411889 -2.62506805685 
3.66759189703 -1.98826702455 -2.39627663529 
3.59738340795 -1.74289988995 -2.5725701964 
3.54529239654 -1.9847995026 -2.38691891454 
3.614339354 -2.20876090357 -2.18861823053 
3.60625160383 -1.98655171076 -2.3916925783 
3.65034612369 -1.48340939439 -2.73389203477 
3.57791370675 -1.20797380048 -2.85727225504 
3.52582955975 -1.48200014676 -2.72321588904 
3.58791298428 -1.48270194267 -2.72866212229 
4.89221386772 -1.76278113319 -2.63686369513 
4.49963431542 -2.00702839402 -2.44049930953 
4.89449916596 -2.24070588365 -2.24331602692 
5.24883141653 -2.01543963716 -2.45582897957 
4.89340910974 -2.01274245696 -2.45146559542 
5.24791456327 -1.49760676574 -2.80183480899 
4.88958977523 -1.21400282731 -2.9286810092 
4.49385058755 -1.4925031407 -2.78434531591 
4.89093745979 -1.49584521155 -2.79685666029 
4.0898868062 -2.22389679473 -2.21663577324 
4.07995231484 -1.75182846629 -2.60550289138 
4.08514819178 -1.9987267995 -2.42230977258 
4.06854501688 -1.20977481184 -2.893849557 
4.07440359327 -1.48816353953 -2.76359302452 
1 16 17 15 
15 17 14 2 
2 14 21 20 
3 25 26 24 
20 21 19 4 
5 22 26 25 
5 27 30 22 
28 30 27 6 
7 13 17 16 
31 33 13 7 
8 23 33 31 
24 26 23 8 
19 21 18 9 
18 35 34 9 
34 35 29 10 
10 29 30 28 
18 21 14 11 
11 32 35 18 
14 17 13 11 
13 33 32 11 
23 26 22 12 
12 32 33 23 
22 30 29 12 
29 35 32 12 
ZONE T="fuse:rgt:0:3",N=35,E=24,DATAPACKING=POINT, ZONETYPE = FEQUADRILATERAL
5.24923577208 -2.24381569617 -2.24730892385 
5.24838804355 -1.76502586308 -2.64155707096 
6.67578956012 -2.24548336296 -2.24897213149 
5.24741464412 -1.21525422388 -2.93389379322 
6.67578954288 -1.76633767983 -2.64351205722 
6.67578953009 -1.21615743492 -2.93606513461 
5.45062727634 -2.24442929192 -2.24792087892 
6.06226674142 -2.24535160408 -2.24884072492 
5.44947619707 -1.21558654833 -2.93469270932 
6.06212283023 -1.2160860741 -2.93589358145 
5.45009145187 -1.76550852855 -2.64227638207 
6.06219974827 -1.76623403592 -2.64335759783 
5.45037169466 -2.015990781 -2.45649771585 
5.349195953 -1.76528557679 -2.64194411948 
5.24883141653 -2.01543963716 -2.45582897957 
5.34987585151 -2.24414586113 -2.24763820599 
5.34955154853 -2.01573619786 -2.45618881467 
5.44979217976 -1.49801630256 -2.80259776466 
5.34841526483 -1.21543304176 -2.93432367577 
5.24791456327 -1.49760676574 -2.80183480899 
5.34881621104 -1.49782713022 -2.80224534187 
6.36890207058 -1.76632472434 -2.64349274979 
6.06223478573 -2.01681922002 -2.45750291122 
6.36891045981 -2.2454668931 -2.24895570567 
6.675789551 -2.01693756845 -2.45764651056 
6.36890645737 -2.0169227749 -2.45762856064 
6.67578953586 -1.49871982911 -2.803908415 
6.36889244464 -1.21614851482 -2.93604369046 
6.06216233313 -1.49863188829 -2.80374458371 
6.36889738755 -1.49870883651 -2.80388793609 
5.75609386144 -2.24503867674 -2.24852863431 
5.75586780052 -1.76598788163 -2.64299075677 
5.75598603264 -2.01653814249 -2.45716186279 
5.7556082325 -1.21591659214 -2.93548614269 
5.75574154104 -1.49842302885 -2.80335548439 
1 16 17 15 
15 17 14 2 
2 14 21 20 
3 25 26 24 
20 21 19 4 
5 22 26 25 
5 27 30 22 
28 30 27 6 
7 13 17 16 
31 33 13 7 
8 23 33 31 
24 26 23 8 
19 21 18 9 
18 35 34 9 
34 35 29 10 
10 29 30 28 
18 21 14 11 
11 32 35 18 
14 17 13 11 
13 33 32 11 
23 26 22 12 
12 32 33 23 
22 30 29 12 
29 35 32 12 
ZONE T="fuse:rgt:0:4",N=25,E=16,DATAPACKING=POINT, ZONETYPE = FEQUADRILATERAL
6.67578956012 -2.24548336296 -2.24897213149 
6.67578954288 -1.76633767983 -2.64351205722 
8.10631581907 -2.24548336296 -2.24897213149 
6.67578953009 -1.21615743492 -2.93606513461 
8.10631580182 -1.76633767983 -2.64351205722 
8.10631578903 -1.21615743492 -2.93606513461 
7.30598617112 -2.24548336296 -2.24897213149 
7.30598614109 -1.21615743492 -2.93606513461 
7.30598615387 -1.76633767983 -2.64351205722 
7.305986162 -2.01693756845 -2.45764651056 
6.99088787036 -1.76633767983 -2.64351205722 
6.675789551 -2.01693756845 -2.45764651056 
6.99088788761 -2.24548336296 -2.24897213149 
6.99088787849 -2.01693756845 -2.45764651056 
7.30598614686 -1.49871982911 -2.803908415 
6.99088785757 -1.21615743492 -2.93606513461 
6.67578953586 -1.49871982911 -2.803908415 
6.99088786335 -1.49871982911 -2.803908415 
7.70615094992 -1.76633767983 -2.64351205722 
7.70615096717 -2.24548336296 -2.24897213149 
8.10631580995 -2.01693756845 -2.45764651056 
7.70615095805 -2.01693756845 -2.45764651056 
8.10631579481 -1.49871982911 -2.803908415 
7.70615093714 -1.21615743492 -2.93606513461 
7.70615094291 -1.49871982911 -2.803908415 
1 13 14 12 
12 14 11 2 
2 11 18 17 
3 21 22 20 
17 18 16 4 
5 19 22 21 
5 23 25 19 
24 25 23 6 
7 10 14 13 
20 22 10 7 
16 18 15 8 
15 25 24 8 
15 18 11 9 
9 19 25 15 
11 14 10 9 
10 22 19 9 
ZONE T="fuse:rgt:0:5",N=35,E=24,DATAPACKING=POINT, ZONETYPE = FEQUADRILATERAL
8.10631581907 -2.24548336296 -2.24897213149 
8.10631580182 -1.76633767983 -2.64351205722 
9.536841808 -2.24548336296 -2.24897213149 
8.10631578903 -1.21615743492 -2.93606513461 
9.53684179076 -1.76633767983 -2.64351205722 
9.53684177797 -1.21615743492 -2.93606513461 
8.63508683794 -2.24548336296 -2.24897213149 
9.16385771728 -2.24548336296 -2.24897213149 
8.63508680791 -1.21615743492 -2.93606513461 
9.16385768725 -1.21615743492 -2.93606513461 
9.16385770004 -1.76633767983 -2.64351205722 
8.37070135106 -2.24548336296 -2.24897213149 
8.10631580995 -2.01693756845 -2.45764651056 
8.4269535748 -1.96516947905 -2.49924263169 
8.29194821256 -2.08783896375 -2.39751034509 
8.42695356288 -1.55696043431 -2.77199910163 
8.10631579481 -1.49871982911 -2.803908415 
8.37070132102 -1.21615743492 -2.93606513461 
8.29194819293 -1.4160284539 -2.84639962253 
9.16385770816 -2.01693756845 -2.45764651056 
8.89947228994 -2.24548336296 -2.24897213149 
8.84322005758 -1.96516947905 -2.49924263169 
8.97822539158 -2.08783896375 -2.39751034509 
9.16385769303 -1.49871982911 -2.803908415 
8.84322004566 -1.55696043431 -2.77199910163 
8.89947225991 -1.21615743492 -2.93606513461 
8.97822537196 -1.4160284539 -2.84639962253 
8.63508682069 -1.76633767983 -2.64351205722 
9.35034974719 -1.76633767983 -2.64351205722 
9.35034976444 -2.24548336296 -2.24897213149 
9.53684179888 -2.01693756845 -2.45764651056 
9.35034975532 -2.01693756845 -2.45764651056 
9.53684178375 -1.49871982911 -2.803908415 
9.3503497344 -1.21615743492 -2.93606513461 
9.35034974018 -1.49871982911 -2.803908415 
1 12 15 13 
13 15 14 2 
14 28 16 2 
2 16 19 17 
3 31 32 30 
17 19 18 4 
5 29 32 31 
5 33 35 29 
34 35 33 6 
14 15 12 7 
7 22 28 14 
21 23 22 7 
8 20 23 21 
30 32 20 8 
18 19 16 9 
16 28 25 9 
25 27 26 9 
26 27 24 10 
10 24 35 34 
11 24 27 25 
25 28 22 11 
22 23 20 11 
20 32 29 11 
29 35 24 11 
ZONE T="fuse:rgt:0:6",N=25,E=16,DATAPACKING=POINT, ZONETYPE = FEQUADRILATERAL
9.536841808 -2.24548336296 -2.24897213149 
9.53684179076 -1.76633767983 -2.64351205722 
10.9673680669 -2.24548336296 -2.24897213149 
9.53684177797 -1.21615743492 -2.93606513461 
10.9673680497 -1.76633767983 -2.64351205722 
10.9673680369 -1.21615743492 -2.93606513461 
10.2521049375 -2.24548336296 -2.24897213149 
10.2521049074 -1.21615743492 -2.93606513461 
10.2521049202 -1.76633767983 -2.64351205722 
10.2521049284 -2.01693756845 -2.45764651056 
9.89447330487 -1.76633767983 -2.64351205722 
9.53684179888 -2.01693756845 -2.45764651056 
9.89447332211 -2.24548336296 -2.24897213149 
9.89447331299 -2.01693756845 -2.45764651056 
10.2521049132 -1.49871982911 -2.803908415 
9.89447329208 -1.21615743492 -2.93606513461 
9.53684178375 -1.49871982911 -2.803908415 
9.89447329786 -1.49871982911 -2.803908415 
10.6097365356 -1.76633767983 -2.64351205722 
10.6097365528 -2.24548336296 -2.24897213149 
10.9673680578 -2.01693756845 -2.45764651056 
10.6097365437 -2.01693756845 -2.45764651056 
10.9673680427 -1.49871982911 -2.803908415 
10.6097365228 -1.21615743492 -2.93606513461 
10.6097365286 -1.49871982911 -2.803908415 
1 13 14 12 
12 14 11 2 
2 11 18 17 
3 21 22 20 
17 18 16 4 
5 19 22 21 
5 23 25 19 
24 25 23 6 
7 10 14 13 
20 22 10 7 
16 18 15 8 
15 25 24 8 
15 18 11 9 
9 19 25 15 
11 14 10 9 
10 22 19 9 
ZONE T="fuse:rgt:0:7",N=35,E=24,DATAPACKING=POINT, ZONETYPE = FEQUADRILATERAL
10.9673680669 -2.24548336296 -2.24897213149 
10.9673680497 -1.76633767983 -2.64351205722 
12.3978943259 -2.24548336296 -2.24897213149 
10.9673680369 -1.21615743492 -2.93606513461 
12.3978943086 -1.76633767983 -2.64351205722 
12.3978942959 -1.21615743492 -2.93606513461 
11.0217291219 -2.24548336296 -2.24897213149 
11.7098117381 -2.24548336296 -2.24897213149 
11.0217290919 -1.21615743492 -2.93606513461 
11.7098117081 -1.21615743492 -2.93606513461 
11.0217291046 -1.76633767983 -2.64351205722 
11.7098117209 -1.76633767983 -2.64351205722 
11.0217291128 -2.01693756845 -2.45764651056 
10.9945485766 -1.76633767983 -2.64351205722 
10.9673680578 -2.01693756845 -2.45764651056 
10.9945485939 -2.24548336296 -2.24897213149 
10.9945485847 -2.01693756845 -2.45764651056 
11.0217290976 -1.49871982911 -2.803908415 
10.9945485638 -1.21615743492 -2.93606513461 
10.9673680427 -1.49871982911 -2.803908415 
10.9945485696 -1.49871982911 -2.803908415 
12.0538530634 -1.76633767983 -2.64351205722 
11.709811729 -2.01693756845 -2.45764651056 
12.0538530806 -2.24548336296 -2.24897213149 
12.3978943168 -2.01693756845 -2.45764651056 
12.0538530715 -2.01693756845 -2.45764651056 
12.3978943016 -1.49871982911 -2.803908415 
12.0538530506 -1.21615743492 -2.93606513461 
11.7098117139 -1.49871982911 -2.803908415 
12.0538530564 -1.49871982911 -2.803908415 
11.3657703885 -2.24548336296 -2.24897213149 
11.3657703713 -1.76633767983 -2.64351205722 
11.3657703794 -2.01693756845 -2.45764651056 
11.3657703585 -1.21615743492 -2.93606513461 
11.3657703642 -1.49871982911 -2.803908415 
1 16 17 15 
15 17 14 2 
2 14 21 20 
3 25 26 24 
20 21 19 4 
5 22 26 25 
5 27 30 22 
28 30 27 6 
7 13 17 16 
31 33 13 7 
8 23 33 31 
24 26 23 8 
19 21 18 9 
18 35 34 9 
34 35 29 10 
10 29 30 28 
18 21 14 11 
11 32 35 18 
14 17 13 11 
13 33 32 11 
23 26 22 12 
12 32 33 23 
22 30 29 12 
29 35 32 12 
ZONE T="fuse:rgt:0:8",N=29,E=19,DATAPACKING=POINT, ZONETYPE = FEQUADRILATERAL
12.3978943259 -2.24548336296 -2.24897213149 
12.3978943086 -1.76633767983 -2.64351205722 
13.8284211249 -2.24548336296 -2.24897213149 
12.3978942959 -1.21615743492 -2.93606513461 
13.8284211076 -1.76633767983 -2.64351205722 
13.8284210948 -1.21615743492 -2.93606513461 
12.8304835099 -2.24548336296 -2.24897213149 
13.3294522486 -2.24548336296 -2.24897213149 
12.8304834799 -1.21615743492 -2.93606513461 
12.8304834927 -1.76633767983 -2.64351205722 
13.191876936 -2.05921361676 -2.42222093962 
13.0799678535 -2.24548336296 -2.24897213149 
12.8304835008 -2.01693756845 -2.45764651056 
13.0154579061 -2.10306634643 -2.38415218648 
12.6141888692 -1.76633767983 -2.64351205722 
12.3978943168 -2.01693756845 -2.45764651056 
12.6141888865 -2.24548336296 -2.24897213149 
12.6141888773 -2.01693756845 -2.45764651056 
12.8304834857 -1.49871982911 -2.803908415 
12.6141888564 -1.21615743492 -2.93606513461 
12.3978943016 -1.49871982911 -2.803908415 
12.6141888622 -1.49871982911 -2.803908415 
13.3939844088 -1.77298955317 -2.63905529377 
13.5789366782 -2.24548336296 -2.24897213149 
13.8284211157 -2.01693756845 -2.45764651056 
13.4762496128 -2.02303074819 -2.45262525874 
13.8284211006 -1.49871982911 -2.803908415 
13.3294522186 -1.21615743492 -2.93606513461 
13.3375187464 -1.49960271495 -2.80343702359 
1 17 18 16 
16 18 15 2 
2 15 22 21 
3 25 26 24 
21 22 20 4 
5 23 26 25 
5 27 29 23 
28 29 27 6 
7 13 18 17 
12 14 13 7 
8 11 14 12 
24 26 11 8 
20 22 19 9 
19 29 28 9 
19 22 15 10 
10 23 29 19 
15 18 13 10 
13 14 11 10 
11 26 23 10 
ZONE T="fuse:rgt:0:9",N=35,E=24,DATAPACKING=POINT, ZONETYPE = FEQUADRILATERAL
13.8284211249 -2.24548336296 -2.24897213149 
13.8284211076 -1.76633767983 -2.64351205722 
15.2589473838 -2.24548336296 -2.24897213149 
13.8284210948 -1.21615743492 -2.93606513461 
15.2589473666 -1.76633767983 -2.64351205722 
15.2589473538 -1.21615743492 -2.93606513461 
14.4071104281 -2.24548336296 -2.24897213149 
14.9857995288 -2.24548336296 -2.24897213149 
14.4071103981 -1.21615743492 -2.93606513461 
14.9857994988 -1.21615743492 -2.93606513461 
14.9857995116 -1.76633767983 -2.64351205722 
14.1177658554 -2.24548336296 -2.24897213149 
13.8284211157 -2.01693756845 -2.45764651056 
14.1793285291 -1.96516947905 -2.49924263169 
14.0315780782 -2.08783896375 -2.39751034509 
14.1793285172 -1.55696043431 -2.77199910163 
13.8284211006 -1.49871982911 -2.803908415 
14.1177658254 -1.21615743492 -2.93606513461 
14.0315780586 -1.4160284539 -2.84639962253 
14.9857995197 -2.01693756845 -2.45764651056 
14.6964549502 -2.24548336296 -2.24897213149 
14.6348922738 -1.96516947905 -2.49924263169 
14.7826426797 -2.08783896375 -2.39751034509 
14.9857995046 -1.49871982911 -2.803908415 
14.6348922619 -1.55696043431 -2.77199910163 
14.6964549201 -1.21615743492 -2.93606513461 
14.7826426601 -1.4160284539 -2.84639962253 
14.4071104108 -1.76633767983 -2.64351205722 
15.1223734152 -1.76633767983 -2.64351205722 
15.1223734324 -2.24548336296 -2.24897213149 
15.2589473747 -2.01693756845 -2.45764651056 
15.1223734233 -2.01693756845 -2.45764651056 
15.2589473595 -1.49871982911 -2.803908415 
15.1223734024 -1.21615743492 -2.93606513461 
15.1223734082 -1.49871982911 -2.803908415 
1 12 15 13 
13 15 14 2 
14 28 16 2 
2 16 19 17 
3 31 32 30 
17 19 18 4 
5 29 32 31 
5 33 35 29 
34 35 33 6 
14 15 12 7 
7 22 28 14 
21 23 22 7 
8 20 23 21 
30 32 20 8 
18 19 16 9 
16 28 25 9 
25 27 26 9 
26 27 24 10 
10 24 35 34 
11 24 27 25 
25 28 22 11 
22 23 20 11 
20 32 29 11 
29 35 24 11 
ZONE T="fuse:rgt:0:10",N=25,E=16,DATAPACKING=POINT, ZONETYPE = FEQUADRILATERAL
15.2589473838 -2.24548336296 -2.24897213149 
15.2589473666 -1.76633767983 -2.64351205722 
16.6894736427 -2.24548336296 -2.24897213149 
15.2589473538 -1.21615743492 -2.93606513461 
16.6894736255 -1.76633767983 -2.64351205722 
16.6894736127 -1.21615743492 -2.93606513461 
15.9742105133 -2.24548336296 -2.24897213149 
15.9742104832 -1.21615743492 -2.93606513461 
15.974210496 -1.76633767983 -2.64351205722 
15.9742105042 -2.01693756845 -2.45764651056 
15.6165790325 -1.76633767983 -2.64351205722 
15.2589473747 -2.01693756845 -2.45764651056 
15.6165790498 -2.24548336296 -2.24897213149 
15.6165790407 -2.01693756845 -2.45764651056 
15.974210489 -1.49871982911 -2.803908415 
15.6165790198 -1.21615743492 -2.93606513461 
15.2589473595 -1.49871982911 -2.803908415 
15.6165790255 -1.49871982911 -2.803908415 
16.3318419595 -1.76633767983 -2.64351205722 
16.3318419768 -2.24548336296 -2.24897213149 
16.6894736336 -2.01693756845 -2.45764651056 
16.3318419676 -2.01693756845 -2.45764651056 
16.6894736185 -1.49871982911 -2.803908415 
16.3318419467 -1.21615743492 -2.93606513461 
16.3318419525 -1.49871982911 -2.803908415 
1 13 14 12 
12 14 11 2 
2 11 18 17 
3 21 22 20 
17 18 16 4 
5 19 22 21 
5 23 25 19 
24 25 23 6 
7 10 14 13 
20 22 10 7 
16 18 15 8 
15 25 24 8 
15 18 11 9 
9 19 25 15 
11 14 10 9 
10 22 19 9 
ZONE T="fuse:rgt:0:11",N=35,E=24,DATAPACKING=POINT, ZONETYPE = FEQUADRILATERAL
16.6894736427 -2.24548336296 -2.24897213149 
16.6894736255 -1.76633767983 -2.64351205722 
18.1199999017 -2.24548336296 -2.24897213149 
16.6894736127 -1.21615743492 -2.93606513461 
18.1199998844 -1.76633767983 -2.64351205722 
18.1199998717 -1.21615743492 -2.93606513461 
16.9185954827 -2.24548336296 -2.24897213149 
17.5192976007 -2.24548336296 -2.24897213149 
16.9185954527 -1.21615743492 -2.93606513461 
17.5192975707 -1.21615743492 -2.93606513461 
16.9185954655 -1.76633767983 -2.64351205722 
18.1199998926 -2.01693756845 -2.45764651056 
17.8196486683 -2.24548336296 -2.24897213149 
17.7557441651 -1.96516947905 -2.49924263169 
17.9091149639 -2.08783896375 -2.39751034509 
18.1199998774 -1.49871982911 -2.803908415 
17.7557441532 -1.55696043431 -2.77199910163 
17.8196486383 -1.21615743492 -2.93606513461 
17.9091149443 -1.4160284539 -2.84639962253 
17.2828510428 -1.96516947905 -2.49924263169 
17.2189465788 -2.24548336296 -2.24897213149 
16.9185954736 -2.01693756845 -2.45764651056 
17.1294803016 -2.08783896375 -2.39751034509 
17.2828510309 -1.55696043431 -2.77199910163 
16.9185954585 -1.49871982911 -2.803908415 
17.2189465488 -1.21615743492 -2.93606513461 
17.129480282 -1.4160284539 -2.84639962253 
16.804034563 -1.76633767983 -2.64351205722 
16.6894736336 -2.01693756845 -2.45764651056 
16.8040345802 -2.24548336296 -2.24897213149 
16.8040345711 -2.01693756845 -2.45764651056 
16.8040345502 -1.21615743492 -2.93606513461 
16.6894736185 -1.49871982911 -2.803908415 
16.8040345559 -1.49871982911 -2.803908415 
17.5192975835 -1.76633767983 -2.64351205722 
1 30 31 29 
29 31 28 2 
2 28 34 33 
3 12 15 13 
33 34 32 4 
14 15 12 5 
5 17 35 14 
5 16 19 17 
18 19 16 6 
7 22 31 30 
21 23 22 7 
8 20 23 21 
13 15 14 8 
14 35 20 8 
32 34 25 9 
25 27 26 9 
26 27 24 10 
10 17 19 18 
24 35 17 10 
11 24 27 25 
25 34 28 11 
28 31 22 11 
22 23 20 11 
20 35 24 11 
ZONE T="fuse:rgt:0:12",N=35,E=24,DATAPACKING=POINT, ZONETYPE = FEQUADRILATERAL
18.1199999017 -2.24548336296 -2.24897213149 
18.1199998844 -1.76633767983 -2.64351205722 
19.5505261606 -2.24548336296 -2.24897213149 
18.1199998717 -1.21615743492 -2.93606513461 
19.5505261434 -1.76633767983 -2.64351205722 
19.5505261306 -1.21615743492 -2.93606513461 
18.7078089995 -2.24548336296 -2.24897213149 
19.2956176477 -2.24548336296 -2.24897213149 
18.7078089695 -1.21615743492 -2.93606513461 
19.2956176177 -1.21615743492 -2.93606513461 
19.2956176305 -1.76633767983 -2.64351205722 
18.4139044787 -2.24548336296 -2.24897213149 
18.1199998926 -2.01693756845 -2.45764651056 
18.4764373511 -1.96516947905 -2.49924263169 
18.3263584313 -2.08783896375 -2.39751034509 
18.4764373392 -1.55696043431 -2.77199910163 
18.1199998774 -1.49871982911 -2.803908415 
18.4139044487 -1.21615743492 -2.93606513461 
18.3263584117 -1.4160284539 -2.84639962253 
19.2956176386 -2.01693756845 -2.45764651056 
19.0017134079 -2.24548336296 -2.24897213149 
18.9391805563 -1.96516947905 -2.49924263169 
19.0892593654 -2.08783896375 -2.39751034509 
19.2956176235 -1.49871982911 -2.803908415 
18.9391805444 -1.55696043431 -2.77199910163 
19.0017133779 -1.21615743492 -2.93606513461 
19.0892593457 -1.4160284539 -2.84639962253 
18.7078089823 -1.76633767983 -2.64351205722 
19.4230719104 -1.76633767983 -2.64351205722 
19.4230719276 -2.24548336296 -2.24897213149 
19.5505261515 -2.01693756845 -2.45764651056 
19.4230719185 -2.01693756845 -2.45764651056 
19.5505261364 -1.49871982911 -2.803908415 
19.4230718976 -1.21615743492 -2.93606513461 
19.4230719034 -1.49871982911 -2.803908415 
1 12 15 13 
13 15 14 2 
14 28 16 2 
2 16 19 17 
3 31 32 30 
17 19 18 4 
5 29 32 31 
5 33 35 29 
34 35 33 6 
14 15 12 7 
7 22 28 14 
21 23 22 7 
8 20 23 21 
30 32 20 8 
18 19 16 9 
16 28 25 9 
25 27 26 9 
10 26 27 24 
24 35 34 10 
11 24 27 25 
25 28 22 11 
22 23 20 11 
20 32 29 11 
29 35 24 11 
ZONE T="fuse:rgt:0:13",N=25,E=16,DATAPACKING=POINT, ZONETYPE = FEQUADRILATERAL
19.5505261606 -2.24548336296 -2.24897213149 
19.5505261434 -1.76633767983 -2.64351205722 
20.9810524196 -2.24548336296 -2.24897213149 
19.5505261306 -1.21615743492 -2.93606513461 
20.9810524023 -1.76633767983 -2.64351205722 
20.9810523896 -1.21615743492 -2.93606513461 
20.2657888851 -2.24548336296 -2.24897213149 
20.2657888551 -1.21615743492 -2.93606513461 
20.2657888679 -1.76633767983 -2.64351205722 
20.265788876 -2.01693756845 -2.45764651056 
19.9081573537 -1.76633767983 -2.64351205722 
19.5505261515 -2.01693756845 -2.45764651056 
19.908157371 -2.24548336296 -2.24897213149 
19.9081573619 -2.01693756845 -2.45764651056 
20.2657888608 -1.49871982911 -2.803908415 
19.908157341 -1.21615743492 -2.93606513461 
19.5505261364 -1.49871982911 -2.803908415 
19.9081573467 -1.49871982911 -2.803908415 
20.6234205845 -1.76633767983 -2.64351205722 
20.6234206017 -2.24548336296 -2.24897213149 
20.9810524105 -2.01693756845 -2.45764651056 
20.6234205926 -2.01693756845 -2.45764651056 
20.9810523953 -1.49871982911 -2.803908415 
20.6234205717 -1.21615743492 -2.93606513461 
20.6234205775 -1.49871982911 -2.803908415 
1 13 14 12 
12 14 11 2 
2 11 18 17 
3 21 22 20 
17 18 16 4 
5 19 22 21 
5 23 25 19 
24 25 23 6 
7 10 14 13 
20 22 10 7 
16 18 15 8 
15 25 24 8 
15 18 11 9 
9 19 25 15 
11 14 10 9 
10 22 19 9 
ZONE T="fuse:rgt:0:14",N=35,E=24,DATAPACKING=POINT, ZONETYPE = FEQUADRILATERAL
20.9810524196 -2.24548336296 -2.24897213149 
20.9810524023 -1.76633767983 -2.64351205722 
22.4115786785 -2.24548336296 -2.24897213149 
20.9810523896 -1.21615743492 -2.93606513461 
22.4115786613 -1.76633767983 -2.64351205722 
22.4115786485 -1.21615743492 -2.93606513461 
21.0889574033 -2.24548336296 -2.24897213149 
21.7502684132 -2.24548336296 -2.24897213149 
21.0889573733 -1.21615743492 -2.93606513461 
21.7502683832 -1.21615743492 -2.93606513461 
21.088957386 -1.76633767983 -2.64351205722 
21.750268396 -1.76633767983 -2.64351205722 
21.0889573942 -2.01693756845 -2.45764651056 
21.0350048944 -1.76633767983 -2.64351205722 
20.9810524105 -2.01693756845 -2.45764651056 
21.0350049116 -2.24548336296 -2.24897213149 
21.0350049025 -2.01693756845 -2.45764651056 
21.088957379 -1.49871982911 -2.803908415 
21.0350048816 -1.21615743492 -2.93606513461 
20.9810523953 -1.49871982911 -2.803908415 
21.0350048874 -1.49871982911 -2.803908415 
22.0809236617 -1.76633767983 -2.64351205722 
21.7502684041 -2.01693756845 -2.45764651056 
22.080923679 -2.24548336296 -2.24897213149 
22.4115786694 -2.01693756845 -2.45764651056 
22.0809236699 -2.01693756845 -2.45764651056 
22.4115786543 -1.49871982911 -2.803908415 
22.0809236489 -1.21615743492 -2.93606513461 
21.750268389 -1.49871982911 -2.803908415 
22.0809236547 -1.49871982911 -2.803908415 
21.4196129613 -2.24548336296 -2.24897213149 
21.4196129441 -1.76633767983 -2.64351205722 
21.4196129522 -2.01693756845 -2.45764651056 
21.4196129313 -1.21615743492 -2.93606513461 
21.4196129371 -1.49871982911 -2.803908415 
1 16 17 15 
15 17 14 2 
2 14 21 20 
3 25 26 24 
20 21 19 4 
5 22 26 25 
5 27 30 22 
28 30 27 6 
7 13 17 16 
31 33 13 7 
8 23 33 31 
24 26 23 8 
19 21 18 9 
18 35 34 9 
34 35 29 10 
10 29 30 28 
18 21 14 11 
11 32 35 18 
14 17 13 11 
13 33 32 11 
23 26 22 12 
12 32 33 23 
22 30 29 12 
29 35 32 12 
ZONE T="fuse:rgt:0:15",N=25,E=16,DATAPACKING=POINT, ZONETYPE = FEQUADRILATERAL
22.4115786785 -2.24548336296 -2.24897213149 
22.4115786613 -1.76633767983 -2.64351205722 
23.8421049375 -2.24548336296 -2.24897213149 
22.4115786485 -1.21615743492 -2.93606513461 
23.8421049202 -1.76633767983 -2.64351205722 
23.8421049074 -1.21615743492 -2.93606513461 
22.9468283996 -2.24548336296 -2.24897213149 
22.9468283695 -1.21615743492 -2.93606513461 
22.9468283823 -1.76633767983 -2.64351205722 
22.9468283904 -2.01693756845 -2.45764651056 
22.6792034296 -1.76633767983 -2.64351205722 
22.4115786694 -2.01693756845 -2.45764651056 
22.6792034469 -2.24548336296 -2.24897213149 
22.6792034377 -2.01693756845 -2.45764651056 
22.9468283753 -1.49871982911 -2.803908415 
22.6792034168 -1.21615743492 -2.93606513461 
22.4115786543 -1.49871982911 -2.803908415 
22.6792034226 -1.49871982911 -2.803908415 
23.394466552 -1.76633767983 -2.64351205722 
23.3944665692 -2.24548336296 -2.24897213149 
23.8421049284 -2.01693756845 -2.45764651056 
23.3944665601 -2.01693756845 -2.45764651056 
23.8421049132 -1.49871982911 -2.803908415 
23.3944665392 -1.21615743492 -2.93606513461 
23.394466545 -1.49871982911 -2.803908415 
1 13 14 12 
12 14 11 2 
2 11 18 17 
3 21 22 20 
17 18 16 4 
5 19 22 21 
5 23 25 19 
24 25 23 6 
7 10 14 13 
20 22 10 7 
16 18 15 8 
15 25 24 8 
15 18 11 9 
9 19 25 15 
11 14 10 9 
10 22 19 9 
ZONE T="fuse:rgt:0:16",N=25,E=16,DATAPACKING=POINT, ZONETYPE = FEQUADRILATERAL
23.8421049375 -2.24548336296 -2.24897213149 
23.8421049202 -1.76633767983 -2.64351205722 
25.2726311964 -2.24548336296 -2.24897213149 
23.8421049074 -1.21615743492 -2.93606513461 
25.2726311792 -1.76633767983 -2.64351205722 
25.2726311664 -1.21615743492 -2.93606513461 
24.8047006969 -2.24548336296 -2.24897213149 
24.8047006669 -1.21615743492 -2.93606513461 
24.8047006797 -1.76633767983 -2.64351205722 
24.8047006878 -2.01693756845 -2.45764651056 
24.3234029233 -1.76633767983 -2.64351205722 
23.8421049284 -2.01693756845 -2.45764651056 
24.3234029406 -2.24548336296 -2.24897213149 
24.3234029315 -2.01693756845 -2.45764651056 
24.8047006726 -1.49871982911 -2.803908415 
24.3234029106 -1.21615743492 -2.93606513461 
23.8421049132 -1.49871982911 -2.803908415 
24.3234029163 -1.49871982911 -2.803908415 
25.0386660019 -1.76633767983 -2.64351205722 
25.0386660192 -2.24548336296 -2.24897213149 
25.2726311873 -2.01693756845 -2.45764651056 
25.03866601 -2.01693756845 -2.45764651056 
25.2726311722 -1.49871982911 -2.803908415 
25.0386659891 -1.21615743492 -2.93606513461 
25.0386659949 -1.49871982911 -2.803908415 
1 13 14 12 
12 14 11 2 
2 11 18 17 
3 21 22 20 
17 18 16 4 
5 19 22 21 
5 23 25 19 
24 25 23 6 
7 10 14 13 
20 22 10 7 
16 18 15 8 
15 25 24 8 
15 18 11 9 
9 19 25 15 
11 14 10 9 
10 22 19 9 
ZONE T="fuse:rgt:0:17",N=35,E=24,DATAPACKING=POINT, ZONETYPE = FEQUADRILATERAL
25.2726311964 -2.24548336296 -2.24897213149 
25.2726311792 -1.76633767983 -2.64351205722 
26.7031574554 -2.24548336296 -2.24897213149 
25.2726311664 -1.21615743492 -2.93606513461 
26.7031574381 -1.76633767983 -2.64351205722 
26.7031574253 -1.21615743492 -2.93606513461 
25.9676010835 -2.24548336296 -2.24897213149 
26.6625717571 -2.24548336296 -2.24897213149 
25.9676010535 -1.21615743492 -2.93606513461 
26.662571727 -1.21615743492 -2.93606513461 
26.6625717398 -1.76633767983 -2.64351205722 
25.9676010663 -1.76633767983 -2.64351205722 
25.9676010744 -2.01693756845 -2.45764651056 
25.620115978 -1.76633767983 -2.64351205722 
25.2726311873 -2.01693756845 -2.45764651056 
25.6201159952 -2.24548336296 -2.24897213149 
25.6201159861 -2.01693756845 -2.45764651056 
25.9676010593 -1.49871982911 -2.803908415 
25.6201159652 -1.21615743492 -2.93606513461 
25.2726311722 -1.49871982911 -2.803908415 
25.620115971 -1.49871982911 -2.803908415 
26.682864589 -1.76633767983 -2.64351205722 
26.6625717479 -2.01693756845 -2.45764651056 
26.6828646062 -2.24548336296 -2.24897213149 
26.7031574462 -2.01693756845 -2.45764651056 
26.6828645971 -2.01693756845 -2.45764651056 
26.7031574311 -1.49871982911 -2.803908415 
26.6828645762 -1.21615743492 -2.93606513461 
26.6625717328 -1.49871982911 -2.803908415 
26.6828645819 -1.49871982911 -2.803908415 
26.3150863512 -1.76633767983 -2.64351205722 
26.3150863684 -2.24548336296 -2.24897213149 
26.3150863593 -2.01693756845 -2.45764651056 
26.3150863384 -1.21615743492 -2.93606513461 
26.3150863442 -1.49871982911 -2.803908415 
1 16 17 15 
15 17 14 2 
2 14 21 20 
3 25 26 24 
20 21 19 4 
5 22 26 25 
5 27 30 22 
28 30 27 6 
7 13 17 16 
32 33 13 7 
8 23 33 32 
24 26 23 8 
19 21 18 9 
18 35 34 9 
29 30 28 10 
10 34 35 29 
23 26 22 11 
11 31 33 23 
22 30 29 11 
29 35 31 11 
18 21 14 12 
12 31 35 18 
14 17 13 12 
13 33 31 12 
ZONE T="fuse:rgt:0:18",N=25,E=16,DATAPACKING=POINT, ZONETYPE = FEQUADRILATERAL
26.7031574554 -2.24548336296 -2.24897213149 
26.7031574381 -1.76633767983 -2.64351205722 
28.1336847989 -2.14142249051 -2.14474958147 
26.7031574253 -1.21615743492 -2.93606513461 