TITLE = "Visualization of CSM meshes"
VARIABLES = "x"  "y"  "z" 

ZONE
T="Zone Title"
DATAPACKING=Block
ZONETYPE=FEQUADRILATERAL
N=9535 E=10548
0.227060147	1.43052633	0.743645682	0.453422581	1.07644256
3.81473687	1.92944969	2.80481372	3.6801779
1.679988	3.74745738	2.36713175	3.24249578
5.24526313	4.5300001	4.1723685	4.88763165
6.67578966	5.49177827	6.08378393	5.36852069
6.37978681	5.78778107	8.10631592	7.31244275
6.99411623	7.70937931	9.53684191	8.61971268
9.13310931	8.36301432	9.33497561	8.87641101
10.9673682	10.2453088	10.9537757	9.89107531
10.960572	10.5995423	12.3978944	11.6826313
11.3249997	12.0402629	13.8284212	12.7599284
13.2941747	12.5789114	13.561298	13.0270515
15.2589475	14.3782097	14.9279979	14.1033155
14.6531038	15.0934727	16.6894737	15.9742106
15.6165791	16.3318421	18.12	16.8284857
17.4742428	16.7589797	17.7971213	17.1513643
19.5505263	18.6318771	19.143754	18.3759386
18.8878156	19.3471402	20.9810525	20.265789
19.9081575	20.6234207	22.4115788	21.072894
21.7422368	21.0269733	22.0769079	21.4075655
23.842105	22.8935601	22.6525693	23.3678324
25.2726313	24.7142274	24.2781663	24.9934294
26.7031576	25.903762	26.5348933	25.5881965
26.6190254	26.2193276	28.1336849	27.4184212
27.0607894	27.7760531	29.5642101	28.3454881
28.9548489	28.2395865	29.2595293	28.6501686
30.9947374	30.1771614	29.8706857	30.5859494
32.4252626	31.606821	32.2189042	31.3007794
32.3220833	31.9128625	34.8094737	33.2739827
34.1227028	32.8496227	34.4660884	33.6983428
36.0072592	35.4956439	35.1634684	35.7841807
0.229321455	0.317376807	1.43052634	1.43052635
0.754935278	0.74392835	0.743753819	0.454376573
0.227925229	0.453787539	0.744403119	0.49152493
0.233119562	0.455978902	1.0764779	1.43052633
1.07645608	1.43052634	1.07785378	1.07653725
3.81473689	3.81473692	1.92944972	2.80481376
3.68017794	1.9294497	3.68017791	2.80481374
1.92944969	1.67998801	1.67998801	1.92944971
1.67998803	1.67998802	3.7474574	3.6801779
3.81473688	3.74745739	3.8147369	3.74745743
3.68017793	3.74745742	2.80481373	2.36713176
2.36713176	3.24249579	3.24249579	2.80481375
2.36713178	2.36713177	3.24249582	3.24249581
5.24526315	5.24526318	4.53000015	4.53000012
4.53000011	4.17236852	4.17236851	4.53000014
4.17236855	4.17236853	4.88763167	5.24526314
4.88763166	5.24526316	4.8876317	4.88763169
6.67578968	6.67578971	5.49177832	6.08378398
5.49177829	6.08378395	5.49177828	5.36852071
5.3685207	5.49177831	5.36852074	5.36852073
6.37978683	6.08378394	6.67578967	6.37978682
6.67578969	6.37978686	6.08378397	6.37978684
5.78778109	5.78778108	5.78778112	5.78778111
8.10631594	8.10631597	7.3124428	7.31244277
7.31244276	6.99411624	6.99411624	7.31244278
6.99411628	6.99411626	8.10631593	7.70937932
7.70937931	8.10631595	7.70937935	7.70937934
9.53684192	9.53684196	8.61971273	9.13310936
9.13310933	8.6197127	8.61971269	8.36301434
8.36301433	8.61971272	8.36301437	8.36301436
9.33497563	9.13310932	9.53684192	9.33497562
9.53684194	9.33497566	9.13310935	9.33497565
8.87641103	8.87641102	8.87641106	8.87641104
10.9673682	10.9673682	10.2453089	10.9537758
10.9537758	10.2453088	10.2453088	9.89107533
9.89107532	10.2453089	9.89107536	9.89107535
10.960572	10.9537758	10.9673682	10.960572
10.9673682	10.960572	10.9537758	10.960572
10.5995424	10.5995423	10.5995424	10.5995424
12.3978944	12.3978945	11.6826313	11.6826313
11.6826313	11.3249997	11.3249997	11.6826313
11.3249997	11.3249997	12.0402629	12.3978944
12.0402629	12.3978945	12.040263	12.0402629
13.8284212	13.8284213	12.7599284	13.2941748
12.7599284	13.2941747	12.7599284	12.5789114
12.5789114	12.7599284	12.5789114	12.5789114
13.561298	13.2941747	13.8284212	13.561298
13.8284213	13.561298	13.2941747	13.561298
13.0270515	13.0270515	13.0270515	13.0270515
15.2589475	15.2589475	14.3782097	14.927998
14.927998	14.1863025	14.0255153	14.5701169
14.3782097	14.3782097	14.927998	14.730904
14.927998	14.5401744	14.6531039	14.7259136
14.1033156	14.2266465	15.0934727	15.2589475
15.0934727	15.2589475	15.0934727	15.0934727
16.6894738	16.6894738	15.9742107	15.9742106
15.9742106	15.6165792	15.6165792	15.9742106
15.6165792	15.6165792	16.3318421	16.6894738
16.3318421	16.6894738	16.3318421	16.3318421
18.12	18.12	16.8284857	17.4742428
16.8284857	17.4742428	16.8284857	16.7589797
16.7589797	16.8284857	16.7589798	16.7589797
17.7971213	17.4742428	18.12	17.7971213
17.7971213	17.4742428	18.12	17.7971213
17.1513643	17.1513643	17.1513643	17.1513643
19.5505263	19.5505263	18.6318772	19.143754
19.143754	18.4532031	18.3035031	18.8105512
18.6318772	18.6318771	18.481081	18.3759386
18.3081495	19.143754	18.960251	19.143754
18.8878157	18.7729892	19.3471402	19.5505263
19.3471402	19.5505263	19.3471402	19.3471402
20.9810525	20.9810526	20.265789	20.265789
20.265789	19.9081575	19.9081575	20.265789
19.9081575	19.9081575	20.6234207	20.9810525
20.6234207	20.9810526	20.6234207	20.6234207
22.4115788	22.4115788	21.0728941	21.7422368
21.072894	21.7422368	21.072894	21.0269733
21.0269733	21.0728941	21.0269733	21.0269733
22.0769079	21.7422368	22.4115788	22.0769079
22.4115788	22.076908	21.7422368	22.0769079
21.4075655	21.4075655	21.4075655	21.4075655
23.8421051	23.8421051	22.8935601	22.8935601
22.8935601	22.6525694	22.6525693	22.8935601
22.6525694	22.6525694	23.3678324	23.842105
23.3678324	23.8421051	23.3678325	23.3678325
25.2726313	25.2726313	24.7142274	24.7142274
24.7142274	24.2781663	24.2781663	24.7142274
24.2781663	24.2781663	24.9934294	25.2726313
24.9934294	25.2726313	24.9934295	24.9934295
26.7031576	26.7031576	25.903762	26.5348934
26.5348933	25.903762	25.903762	25.5881965
25.5881965	25.903762	25.5881966	25.5881965
26.6190255	26.5348933	26.7031576	26.6190255
26.6190255	26.5348934	26.7031576	26.6190255
26.2193276	26.2193276	26.2193276	26.2193276
28.1336849	28.1336849	27.4184213	27.4184212
27.4184212	27.0607894	27.0607894	27.4184213
27.0607894	27.0607894	27.7760531	28.1336849
27.7760531	28.1336849	27.7760531	27.7760531
29.5642101	29.5642101	28.3454881	28.9548489
28.3454881	28.9548489	28.3454881	28.2395865
28.2395865	28.3454881	28.2395866	28.2395865
29.2595293	28.9548489	29.5642101	29.2595293
29.5642101	29.2595294	28.9548489	29.2595293
28.6501686	28.6501686	28.6501686	28.6501686
30.9947374	30.9947374	30.1771614	30.1771614
30.1771614	29.8706857	29.8706857	30.1771614
29.8706858	29.8706857	30.5859494	30.9947374
30.5859494	30.9947374	30.5859494	30.5859494
32.4252626	32.4252626	31.606821	32.2189042
32.2189042	31.606821	31.606821	31.3007794
31.3007794	31.606821	31.3007794	31.3007794
32.3220834	32.2189042	32.4252626	32.3220833
32.4252626	32.3220834	32.2189042	32.3220834
31.9128625	31.9128625	31.9128625	31.9128625
34.8094737	34.8094738	33.2739827	34.1227028
34.1227028	33.2739827	33.2739827	32.8496227
32.8496227	33.2739827	32.8496227	32.8496227
34.4660884	34.1227028	34.8094737	34.4660884
34.8094738	34.4660884	34.1227028	34.4660884
33.6983428	33.6983428	33.6983428	33.6983428
36.0061286	35.9223651	35.4850321	35.4955025
35.4955898	35.1634507	35.1634616	35.4952652
35.1621419	35.163421	35.7837037	36.0068267
35.7839982	36.0042295	35.748366	35.7829025
0.23136253	1.43052636	0.744183498	0.744573131
0.455237659	0.234479608	0.456552675	1.07650981
1.43052636	1.07655851	3.81473693	1.92944973
2.80481377	3.68017795	1.92944972	1.67998804
1.67998804	3.74745744	3.68017795	3.81473692
3.74745744	2.80481377	2.3671318	2.36713179
3.24249584	3.24249583	5.24526319	4.53000016
4.53000016	4.17236856	4.17236855	4.88763172
5.24526319	4.88763171	6.67578972	5.49177834
6.083784	5.49177833	5.36852076	5.36852075
6.37978687	6.08378399	6.67578972	6.37978687
5.78778114	5.78778113	8.10631598	7.31244281
7.31244281	6.99411629	6.99411628	7.70937937
8.10631598	7.70937936	9.53684197	8.61971275
9.13310938	8.61971274	8.36301439	8.36301438
9.33497568	9.13310937	9.53684196	9.33497567
8.87641107	8.87641107	10.9673682	10.2453089
10.9537758	10.2453089	9.89107538	9.89107537
10.960572	10.9537758	10.9673682	10.960572
10.5995424	10.5995424	12.3978945	11.6826314
11.6826314	11.3249997	11.3249997	12.040263
12.3978945	12.040263	13.8284213	12.7599284
13.2941748	12.7599284	12.5789114	12.5789114
13.561298	13.2941748	13.8284213	13.561298
13.0270516	13.0270516	15.2589475	14.3782098
14.927998	14.3782098	14.1033156	14.1033156
15.0934727	14.927998	15.2589475	15.0934727
14.6531039	14.6531039	16.6894738	15.9742107
15.9742107	15.6165792	15.6165792	16.3318421
16.6894738	16.3318421	18.1200001	16.8284857
17.4742428	16.8284857	16.7589798	16.7589798
17.7971214	17.4742428	18.1200001	17.7971214
17.1513643	17.1513643	19.5505263	18.6318772
19.143754	18.6318772	18.3759386	18.3759386
19.3471402	19.143754	19.5505263	19.3471402
18.8878157	18.8878157	20.9810526	20.265789
20.265789	19.9081575	19.9081575	20.6234208
20.9810526	20.6234208	22.4115788	21.0728941
21.7422368	21.0728941	21.0269733	21.0269733
22.076908	21.7422368	22.4115788	22.076908
21.4075655	21.4075655	23.8421051	22.8935601
22.8935601	22.6525694	22.6525694	23.3678325
23.8421051	23.3678325	25.2726314	24.7142274
24.7142274	24.2781664	24.2781664	24.9934295
25.2726314	24.9934295	26.7031576	25.903762
26.5348934	25.903762	25.5881966	25.5881966
26.6190255	26.5348934	26.7031576	26.6190255
26.2193277	26.2193276	28.133685	27.4184213
27.4184213	27.0607895	27.0607894	27.7760531
28.1336849	27.7760531	29.5642101	28.3454881
28.954849	28.3454881	28.2395866	28.2395866
29.2595294	28.954849	29.5642101	29.2595294
28.6501686	28.6501686	30.9947375	30.1771614
30.1771614	29.8706858	29.8706858	30.5859494
30.9947374	30.5859494	32.4252626	31.606821
32.2189042	31.606821	31.3007794	31.3007794
32.3220834	32.2189042	32.4252626	32.3220834
31.9128625	31.9128625	34.8094738	33.2739827
34.1227028	33.2739827	32.8496227	32.8496227
34.4660884	34.1227028	34.8094738	34.4660884
33.6983428	33.6983428	36.0051081	35.495375
35.4951802	35.1634348	35.1634104	35.7832732
36.0035495	35.7826156	0.229482357	0.227554706
1.43052636	1.43052636	0.743707522	0.743948477
0.744058693	0.454444462	0.230364085	0.45481644
0.74379803	0.453631234	0.228278773	0.4539367
1.07648043	1.43052636	1.07649421	1.43052636
1.07645032	1.07646163	3.81473693	3.81473694
1.92944973	2.80481378	3.68017796	1.92944973
3.68017796	2.80481378	1.92944973	1.67998804
1.67998804	1.92944973	1.67998804	1.67998804
3.74745745	3.68017796	3.81473693	3.74745744
3.81473693	3.74745745	3.68017796	3.74745745
2.80481378	2.3671318	2.3671318	3.24249584
3.24249584	2.80481378	2.3671318	2.3671318
3.24249584	3.24249584	5.2452632	5.2452632
4.53000017	4.53000017	4.53000017	4.17236856
4.17236856	4.53000017	4.17236857	4.17236856
4.88763172	5.2452632	4.88763172	5.2452632
4.88763172	4.88763172	6.67578973	6.67578973
5.49177834	6.083784	5.49177834	6.083784
5.49177834	5.36852076	5.36852076	5.49177834
5.36852076	5.36852076	6.37978688	6.083784
6.67578972	6.37978687	6.67578973	6.37978688
6.083784	6.37978688	5.78778114	5.78778114
5.78778114	5.78778114	8.10631598	8.10631599
7.31244282	7.31244282	7.31244282	6.99411629
6.99411629	7.31244282	6.9941163	6.9941163
8.10631598	7.70937937	7.70937937	8.10631599
7.70937938	7.70937937	9.53684197	9.53684198
8.61971275	9.13310938	9.13310938	8.61971275
8.61971275	8.36301439	8.36301439	8.61971275
8.36301439	8.36301439	9.33497568	9.13310938
9.53684197	9.33497568	9.53684198	9.33497568
9.13310938	9.33497568	8.87641108	8.87641108
8.87641108	8.87641108	10.9673682	10.9673682
10.2453089	10.9537758	10.9537758	10.2453089
10.2453089	9.89107538	9.89107538	10.2453089
9.89107538	9.89107538	10.960572	10.9537758
10.9673682	10.960572	10.9673682	10.960572
10.9537758	10.960572	10.5995424	10.5995424
10.5995424	10.5995424	12.3978945	12.3978945
11.6826314	11.6826314	11.6826314	11.3249997
11.3249997	11.6826314	11.3249997	11.3249997
12.040263	12.3978945	12.040263	12.3978945
12.040263	12.040263	13.8284213	13.8284213
12.7599284	13.2941748	12.7599284	13.2941748
12.7599284	12.5789114	12.5789114	12.7599284
12.5789114	12.5789114	13.561298	13.2941748
13.8284213	13.561298	13.8284213	13.561298
13.2941748	13.561298	13.0270516	13.0270516
13.0270516	13.0270516	15.2589475	15.2589476
14.3782098	14.927998	14.927998	14.1863025
14.0255153	14.570117	14.3782098	14.3782098
14.1863025	14.1033156	14.0255153	14.570117
14.3782098	14.927998	14.7309041	14.927998
14.6531039	14.7309041	15.0934727	15.2589475
15.0934727	15.2589476	15.0934728	15.0934728
16.6894738	16.6894738	15.9742107	15.9742107
15.9742107	15.6165792	15.6165792	15.9742107
15.6165792	15.6165792	16.3318421	16.6894738
16.3318421	16.6894738	16.3318421	16.3318421
18.1200001	18.1200001	16.8284857	17.4742428
16.8284857	17.4742428	16.8284857	16.7589798
16.7589798	16.8284857	16.7589798	16.7589798
17.7971214	17.4742428	18.1200001	17.7971214
17.7971214	17.4742428	18.1200001	17.7971214
17.1513643	17.1513643	17.1513643	17.1513643
19.5505263	19.5505263	18.6318772	19.143754
19.143754	18.4532031	18.3035032	18.8105512
18.6318772	18.6318772	18.4532031	18.3759387
18.3035032	18.8105512	18.6318772	19.143754
18.9602511	19.143754	18.8878157	18.9602511
19.3471402	19.5505263	19.3471402	19.5505263
19.3471402	19.3471402	20.9810526	20.9810526
20.2657891	20.2657891	20.265789	19.9081575
19.9081575	20.2657891	19.9081575	19.9081575
20.6234208	20.9810526	20.6234208	20.9810526
20.6234208	20.6234208	22.4115788	22.4115788
21.0728941	21.7422368	21.0728941	21.7422368
21.0728941	21.0269733	21.0269733	21.0728941
21.0269733	21.0269733	22.076908	21.7422368
22.4115788	22.076908	22.4115788	22.076908
21.7422368	22.076908	21.4075655	21.4075655
21.4075655	21.4075655	23.8421051	23.8421051
22.8935601	22.8935601	22.8935601	22.6525694
22.6525694	22.8935601	22.6525694	22.6525694
23.3678325	23.8421051	23.3678325	23.8421051
23.3678325	23.3678325	25.2726314	25.2726314
24.7142274	24.7142274	24.7142274	24.2781664
24.2781664	24.7142274	24.2781664	24.2781664
24.9934295	25.2726314	24.9934295	25.2726314
24.9934295	24.9934295	26.7031576	26.7031576
25.903762	26.5348934	26.5348934	25.903762
25.903762	25.5881966	25.5881966	25.903762
25.5881966	25.5881966	26.6190255	26.5348934
26.7031576	26.6190255	26.7031576	26.6190255
26.5348934	26.6190255	26.2193277	26.2193277
26.2193277	26.2193277	28.133685	28.133685
27.4184213	27.4184213	27.4184213	27.0607895
27.0607895	27.4184213	27.0607895	27.0607895
27.7760531	28.133685	27.7760531	28.133685
27.7760531	27.7760531	29.5642101	29.5642101
28.3454881	28.954849	28.3454881	28.954849
28.3454881	28.2395866	28.2395866	28.3454881
28.2395866	28.2395866	29.2595294	28.954849
29.5642101	29.2595294	29.5642101	29.2595294
28.954849	29.2595294	28.6501686	28.6501686
28.6501686	28.6501686	30.9947375	30.9947375
30.1771614	30.1771614	30.1771614	29.8706858
29.8706858	30.1771614	29.8706858	29.8706858
30.5859494	30.9947375	30.5859494	30.9947375
30.5859494	30.5859494	32.4252626	32.4252626
31.606821	32.2189042	32.2189042	31.606821
31.606821	31.3007794	31.3007794	31.606821
31.3007794	31.3007794	32.3220834	32.2189042
32.4252626	32.3220834	32.4252626	32.3220834
32.2189042	32.3220834	31.9128625	31.9128625
31.9128625	31.9128625	34.8094738	34.8094738
33.2739828	34.1227028	34.1227028	33.2739828
33.2739827	32.8496227	32.8496227	33.2739828
32.8496227	32.8496227	34.4660884	34.1227028
34.8094738	34.4660884	34.8094738	34.4660884
34.1227028	34.4660884	33.6983428	33.6983428
33.6983428	33.6983428	36.0060481	36.007012
35.495613	35.4954925	35.4954374	35.1634495
35.1634426	35.4955677	35.1634645	35.1634589
35.7836698	36.0056073	35.7834838	36.0066499
35.7840764	35.7839236	0.228966554	0.231362531
0.230126713	1.43052636	1.43052636	1.43052636
0.744183498	0.744029022	0.743884002	0.743770894
0.454226857	0.228061687	0.453845116	0.743953468
0.454716299	0.229522285	0.454461306	1.07647237
1.43052636	1.07645824	0.744103193	0.455237659
0.230720088	0.454966629	1.43052636	1.0764905
1.07648106	1.43052636	1.07650981	1.07649977
3.81473693	3.81473693	3.81473693	1.92944973
2.80481377	3.68017795	1.92944973	1.92944973
3.68017796	3.68017796	2.80481378	2.80481378
1.92944973	1.67998804	1.67998804	1.92944973
1.67998804	1.67998804	3.74745745	3.68017796
3.81473694	3.74745745	1.92944973	1.67998804
1.67998804	3.74745744	3.68017796	3.81473693
3.74745745	3.81473693	3.74745744	3.68017796
3.74745744	2.80481378	2.3671318	2.3671318
3.24249584	3.24249584	2.3671318	2.80481377
2.3671318	2.3671318	3.24249584	3.24249584
3.24249584	2.80481378	2.3671318	3.24249584
5.2452632	5.2452632	5.24526319	4.53000016
4.53000017	4.53000017	4.53000017	4.17236856
4.17236857	4.53000017	4.17236856	4.17236856
4.88763172	5.2452632	4.88763172	4.53000017
4.17236856	4.17236856	5.2452632	4.88763172
4.88763172	5.24526319	4.88763172	4.88763172
6.67578973	6.67578972	6.67578972	5.49177834
6.083784	5.49177834	5.49177834	6.083784
6.083784	5.49177834	5.36852076	5.36852076
5.49177834	5.36852076	5.36852076	6.37978688
6.083784	6.67578973	6.37978688	5.49177834
5.36852076	5.36852076	6.67578973	6.37978688
6.083784	6.37978688	6.67578972	6.37978687
6.083784	6.37978687	5.78778114	5.78778114
5.78778114	5.78778114	5.78778114	5.78778114
8.10631599	8.10631598	8.10631598	7.31244281
7.31244282	7.31244282	7.31244282	6.99411629
6.9941163	7.31244282	6.99411629	6.99411629
7.70937937	8.10631599	7.70937937	7.31244282
6.99411629	6.99411629	7.70937937	8.10631598
7.70937937	8.10631598	7.70937937	7.70937937
9.53684197	9.53684197	9.53684197	8.61971275
9.13310938	9.13310938	9.13310938	8.61971275
8.61971275	8.61971275	8.36301439	8.36301439
8.61971275	8.36301439	8.36301439	9.33497568
9.13310938	9.53684198	9.33497568	8.61971275
8.36301439	8.36301439	9.33497568	9.13310938
9.53684197	9.33497568	9.53684197	9.33497568
9.13310938	9.33497568	8.87641108	8.87641108
8.87641108	8.87641107	8.87641107	8.87641108
10.9673682	10.9673682	10.9673682	10.2453089
10.9537758	10.9537758	10.9537758	10.2453089
10.2453089	10.2453089	9.89107538	9.89107538
10.2453089	9.89107538	9.89107538	10.960572
10.9537758	10.9673682	10.960572	10.2453089
9.89107538	9.89107538	10.960572	10.9537758
10.9673682	10.960572	10.9673682	10.960572
10.9537758	10.960572	10.5995424	10.5995424
10.5995424	10.5995424	10.5995424	10.5995424
12.3978945	12.3978945	12.3978945	11.6826314
11.6826314	11.6826314	11.6826314	11.3249997
11.3249997	11.6826314	11.3249997	11.3249997
12.040263	12.3978945	12.040263	11.6826314
11.3249997	11.3249997	12.3978945	12.040263
12.040263	12.3978945	12.040263	12.040263
13.8284213	13.8284213	13.8284213	12.7599284
13.2941748	12.7599284	12.7599284	13.2941748
13.2941748	12.7599284	12.5789114	12.5789114
12.7599284	12.5789114	12.5789114	13.561298
13.2941748	13.8284213	13.561298	12.7599284
12.5789114	12.5789114	13.8284213	13.561298
13.2941748	13.561298	13.8284213	13.561298
13.2941748	13.561298	13.0270516	13.0270516
13.0270516	13.0270516	13.0270516	13.0270516
15.2589476	15.2589475	15.2589475	14.3782098
14.927998	14.927998	14.927998	14.1863025
14.0255153	14.570117	14.3782098	14.3782098
14.1863025	14.1033156	14.0255153	14.570117
14.3782098	14.3782098	14.927998	14.7309041
14.6531039	14.927998	14.7309041	14.927998
14.3782098	15.0934727	15.2589476	15.0934728
15.0934727	15.2589475	15.0934727	15.2589475
15.0934727	15.0934727	16.6894738	16.6894738
16.6894738	15.9742107	15.9742107	15.9742107
15.9742107	15.6165792	15.6165792	15.9742107
15.6165792	15.6165792	16.3318421	16.6894738
16.3318421	15.9742107	15.6165792	15.6165792
16.6894738	16.3318421	16.3318421	16.6894738
16.3318421	16.3318421	18.1200001	18.1200001
18.1200001	16.8284857	17.4742428	16.8284857
16.8284857	17.4742428	17.4742428	16.8284857
16.7589798	16.7589798	16.8284857	16.7589798
16.7589798	17.7971214	17.4742428	18.1200001
17.7971214	16.8284857	16.7589798	16.7589798
18.1200001	17.7971214	17.4742428	17.7971214
18.1200001	17.7971214	17.4742428	17.7971214
17.1513643	17.1513643	17.1513643	17.1513643
17.1513643	17.1513643	19.5505263	19.5505263
19.5505263	18.6318772	19.143754	19.143754
19.143754	18.4532031	18.3035032	18.8105512
18.6318772	18.6318772	18.4532031	18.3759386
18.3035032	18.8105512	18.6318772	18.6318772
19.143754	18.9602511	18.8878157	19.143754
18.9602511	19.143754	18.6318772	19.3471402
19.5505263	19.3471402	19.3471402	19.5505263
19.3471402	19.5505263	19.3471402	19.3471402
20.9810526	20.9810526	20.9810526	20.265789
20.265789	20.2657891	20.2657891	19.9081575
19.9081575	20.2657891	19.9081575	19.9081575
20.6234208	20.9810526	20.6234208	20.265789
19.9081575	19.9081575	20.9810526	20.6234208
20.6234208	20.9810526	20.6234208	20.6234208
22.4115788	22.4115788	22.4115788	21.0728941
21.7422368	21.0728941	21.0728941	21.7422368
21.7422368	21.0728941	21.0269733	21.0269733
21.0728941	21.0269733	21.0269733	22.076908
21.7422368	22.4115788	22.076908	21.0728941
21.0269733	21.0269733	22.4115788	22.076908
21.7422368	22.076908	22.4115788	22.076908
21.7422368	22.076908	21.4075655	21.4075655
21.4075655	21.4075655	21.4075655	21.4075655
23.8421051	23.8421051	23.8421051	22.8935601
22.8935601	22.8935601	22.8935601	22.6525694
22.6525694	22.8935601	22.6525694	22.6525694
23.3678325	23.8421051	23.3678325	22.8935601
22.6525694	22.6525694	23.3678325	23.8421051
23.3678325	23.8421051	23.3678325	23.3678325
25.2726314	25.2726314	25.2726314	24.7142274
24.7142274	24.7142274	24.7142274	24.2781664
24.2781664	24.7142274	24.2781664	24.2781664
24.9934295	25.2726314	24.9934295	24.7142274
24.2781664	24.2781664	24.9934295	25.2726314
24.9934295	25.2726314	24.9934295	24.9934295
26.7031576	26.7031576	26.7031576	25.903762
26.5348934	26.5348934	26.5348934	25.903762
25.903762	25.903762	25.5881966	25.5881966
25.903762	25.5881966	25.5881966	26.6190255
26.5348934	26.7031576	26.6190255	25.903762
25.5881966	25.5881966	26.6190255	26.5348934
26.7031576	26.6190255	26.7031576	26.6190255
26.5348934	26.6190255	26.2193277	26.2193277
26.2193277	26.2193277	26.2193277	26.2193277
28.133685	28.133685	28.133685	27.4184213
27.4184213	27.4184213	27.4184213	27.0607895
27.0607895	27.4184213	27.0607895	27.0607895
27.7760531	28.133685	27.7760531	27.4184213
27.0607895	27.0607895	28.133685	27.7760531
27.7760531	28.133685	27.7760531	27.7760531
29.5642101	29.5642101	29.5642101	28.3454881
28.954849	28.3454881	28.3454881	28.954849
28.954849	28.3454881	28.2395866	28.2395866
28.3454881	28.2395866	28.2395866	29.2595294
28.954849	29.5642101	29.2595294	28.3454881
28.2395866	28.2395866	29.5642101	29.2595294
28.954849	29.2595294	29.5642101	29.2595294
28.954849	29.2595294	28.6501686	28.6501686
28.6501686	28.6501686	28.6501686	28.6501686
30.9947375	30.9947375	30.9947375	30.1771614
30.1771614	30.1771614	30.1771614	29.8706858
29.8706858	30.1771614	29.8706858	29.8706858
30.5859494	30.9947375	30.5859494	30.1771614
29.8706858	29.8706858	30.5859494	30.9947375
30.5859494	30.9947375	30.5859494	30.5859494
32.4252626	32.4252626	32.4252626	31.606821
32.2189042	32.2189042	32.2189042	31.606821
31.606821	31.606821	31.3007794	31.3007794
31.606821	31.3007794	31.3007794	32.3220834
32.2189042	32.4252626	32.3220834	31.606821
31.3007794	31.3007794	32.3220834	32.2189042
32.4252626	32.3220834	32.4252626	32.3220834
32.2189042	32.3220834	31.9128625	31.9128625
31.9128625	31.9128625	31.9128625	31.9128625
34.8094738	34.8094738	34.8094738	33.2739827
34.1227028	34.1227028	34.1227028	33.2739827
33.2739828	33.2739828	32.8496227	32.8496227
33.2739828	32.8496227	32.8496227	34.4660884
34.1227028	34.8094738	34.4660884	33.2739827
32.8496227	32.8496227	34.4660884	34.1227028
34.8094738	34.4660884	34.8094738	34.4660884
34.1227028	34.4660884	33.6983428	33.6983428
33.6983428	33.6983428	33.6983428	33.6983428
36.006306	36.005726	36.0051081	35.495375
35.4954522	35.4955247	35.4955813	35.1634535
35.1634606	35.49549	35.1634444	35.1634492
35.7837786	36.0067585	35.7839694	35.4954151
35.1634348	35.1634398	36.0060282	35.7835338
35.7836613	36.0054293	35.7832732	35.7834087
0.317376807	1.43052635	0.754935278	0.744573131
0.49152493	0.234479609	0.456552675	1.07785378
1.43052636	1.07655851	3.81473692	1.92944972
2.80481376	3.68017794	1.92944972	1.67998803
1.67998804	3.74745743	3.68017795	3.81473692
3.74745744	2.80481377	2.36713178	2.36713179
3.24249582	3.24249583	5.24526318	4.53000015
4.53000016	4.17236855	4.17236855	4.8876317
5.24526319	4.88763171	6.67578971	5.49177832
6.08378398	5.49177833	5.36852074	5.36852075
6.37978686	6.08378399	6.67578972	6.37978687
5.78778112	5.78778113	8.10631597	7.3124428
7.31244281	6.99411628	6.99411628	7.70937935
8.10631598	7.70937936	9.53684196	8.61971273
9.13310936	8.61971274	8.36301437	8.36301438
9.33497566	9.13310937	9.53684196	9.33497567
8.87641106	8.87641107	10.9673682	10.2453089
10.9537758	10.2453089	9.89107536	9.89107537
10.960572	10.9537758	10.9673682	10.960572
10.5995424	10.5995424	12.3978945	11.6826313
11.6826314	11.3249997	11.3249997	12.040263
12.3978945	12.040263	13.8284213	12.7599284
13.2941748	12.7599284	12.5789114	12.5789114
13.561298	13.2941748	13.8284213	13.561298
13.0270515	13.0270516	15.2589475	14.3782097
14.927998	14.3782098	14.1033156	14.1033156
15.0934727	14.927998	15.2589475	15.0934727
14.6531039	14.6531039	16.6894738	15.9742107
15.9742107	15.6165792	15.6165792	16.3318421
16.6894738	16.3318421	18.12	16.8284857
17.4742428	16.8284857	16.7589798	16.7589798
17.7971213	17.4742428	18.1200001	17.7971214
17.1513643	17.1513643	19.5505263	18.6318772
19.143754	18.6318772	18.3759386	18.3759386
19.3471402	19.143754	19.5505263	19.3471402
18.8878157	18.8878157	20.9810526	20.265789
20.265789	19.9081575	19.9081575	20.6234207
20.9810526	20.6234208	22.4115788	21.0728941
21.7422368	21.0728941	21.0269733	21.0269733
22.076908	21.7422368	22.4115788	22.076908
21.4075655	21.4075655	23.8421051	22.8935601
22.8935601	22.6525694	22.6525694	23.3678325
23.8421051	23.3678325	25.2726313	24.7142274
24.7142274	24.2781663	24.2781664	24.9934295
25.2726314	24.9934295	26.7031576	25.903762
26.5348934	25.903762	25.5881966	25.5881966
26.6190255	26.5348934	26.7031576	26.6190255
26.2193276	26.2193276	28.1336849	27.4184213
27.4184213	27.0607894	27.0607894	27.7760531
28.1336849	27.7760531	29.5642101	28.3454881
28.9548489	28.3454881	28.2395866	28.2395866
29.2595294	28.954849	29.5642101	29.2595294
28.6501686	28.6501686	30.9947374	30.1771614
30.1771614	29.8706858	29.8706858	30.5859494
30.9947374	30.5859494	32.4252626	31.606821
32.2189042	31.606821	31.3007794	31.3007794
32.3220834	32.2189042	32.4252626	32.3220834
31.9128625	31.9128625	34.8094738	33.2739827
34.1227028	33.2739827	32.8496227	32.8496227
34.4660884	34.1227028	34.8094738	34.4660884
33.6983428	33.6983428	35.9223651	35.4850321
35.4951802	35.1621419	35.1634104	35.748366
36.0035495	35.7826156	0.229321466	0.227060162
1.43052634	1.43052633	0.743645683	0.743928352
0.744403119	0.454376578	0.233119568	0.455978905
0.743753821	0.453422587	0.227925242	0.453787545
1.0764779	1.43052634	1.07653725	1.43052633
1.07644256	1.07645608	3.81473689	3.81473687
1.92944969	2.80481372	3.6801779	1.9294497
3.68017791	2.80481374	1.92944971	1.67998801
1.67998802	1.92944969	1.679988	1.67998801
3.7474574	3.68017793	3.8147369	3.74745742
3.81473688	3.74745738	3.6801779	3.74745739
2.80481375	2.36713176	2.36713177	3.24249579
3.24249581	2.80481373	2.36713175	2.36713176
3.24249578	3.24249579	5.24526315	5.24526313
4.5300001	4.53000012	4.53000014	4.17236852
4.17236853	4.53000011	4.1723685	4.17236851
4.88763167	5.24526316	4.88763169	5.24526314
4.88763165	4.88763166	6.67578968	6.67578966
5.49177827	6.08378393	5.49177829	6.08378395
5.49177831	5.36852071	5.36852073	5.49177828
5.36852069	5.3685207	6.37978683	6.08378397
6.67578969	6.37978684	6.67578967	6.37978681
6.08378394	6.37978682	5.78778109	5.78778111
5.78778107	5.78778108	8.10631594	8.10631592
7.31244275	7.31244277	7.31244278	6.99411624
6.99411626	7.31244276	6.99411623	6.99411624
7.70937932	8.10631595	7.70937934	8.10631593
7.70937931	7.70937931	9.53684192	9.53684191
8.61971268	9.13310931	9.13310933	8.6197127
8.61971272	8.36301434	8.36301436	8.61971269
8.36301432	8.36301433	9.33497563	9.13310935
9.53684194	9.33497565	9.53684192	9.33497561
9.13310932	9.33497562	8.87641103	8.87641104
8.87641101	8.87641102	10.9673682	10.9673682
10.2453088	10.9537757	10.9537758	10.2453088
10.2453089	9.89107533	9.89107535	10.2453088
9.89107531	9.89107532	10.960572	10.9537758
10.9673682	10.960572	10.9673682	10.960572
10.9537758	10.960572	10.5995424	10.5995424
10.5995423	10.5995423	12.3978944	12.3978944
11.6826313	11.6826313	11.6826313	11.3249997
11.3249997	11.6826313	11.3249997	11.3249997
12.0402629	12.3978945	12.0402629	12.3978944
12.0402629	12.0402629	13.8284212	13.8284212
12.7599284	13.2941747	12.7599284	13.2941747
12.7599284	12.5789114	12.5789114	12.7599284
12.5789114	12.5789114	13.561298	13.2941747
13.8284213	13.561298	13.8284212	13.561298
13.2941747	13.561298	13.0270515	13.0270515
13.0270515	13.0270515	15.2589475	15.2589475
14.3782097	14.9279979	14.927998	14.1863025
14.1033155	14.0255153	14.3782097	14.5701169
14.3782097	14.927998	14.5401744	14.7259136
14.927998	14.6531038	14.730904	14.2266465
15.0934727	15.2589475	15.0934727	15.2589475
15.0934727	15.0934727	16.6894738	16.6894737
15.9742106	15.9742106	15.9742106	15.6165792
15.6165792	15.9742106	15.6165791	15.6165792
16.3318421	16.6894738	16.3318421	16.6894738
16.3318421	16.3318421	18.12	18.12
16.8284857	17.4742428	16.8284857	17.4742428
16.8284857	16.7589797	16.7589797	16.8284857
16.7589797	16.7589797	17.7971213	17.4742428
18.12	17.7971213	18.12	17.7971213
17.4742428	17.7971213	17.1513643	17.1513643
17.1513643	17.1513643	19.5505263	19.5505263
18.6318771	19.143754	19.143754	18.481081
18.3081495	18.4532031	18.3759386	18.3035031
18.6318772	18.8105512	18.6318771	19.143754
18.8878156	18.960251	19.143754	18.7729892
19.3471402	19.5505263	19.3471402	19.5505263
19.3471402	19.3471402	20.9810525	20.9810525
20.265789	20.265789	20.265789	19.9081575
19.9081575	20.265789	19.9081575	19.9081575
20.6234207	20.9810526	20.6234207	20.9810525
20.6234207	20.6234207	22.4115788	22.4115788
21.072894	21.7422368	21.072894	21.7422368
21.0728941	21.0269733	21.0269733	21.072894
21.0269733	21.0269733	22.0769079	21.7422368
22.4115788	22.0769079	22.4115788	22.0769079
21.7422368	22.0769079	21.4075655	21.4075655
21.4075655	21.4075655	23.8421051	23.842105
22.8935601	22.8935601	22.8935601	22.6525694
22.6525694	22.8935601	22.6525693	22.6525693
23.3678324	23.8421051	23.3678325	23.842105
23.3678324	23.3678324	25.2726313	25.2726313
24.7142274	24.7142274	24.7142274	24.2781663
24.2781663	24.7142274	24.2781663	24.2781663
24.9934294	25.2726313	24.9934295	25.2726313
24.9934294	24.9934294	26.7031576	26.7031576
25.903762	26.5348933	26.5348933	25.903762
25.903762	25.5881965	25.5881965	25.903762