title = GeoMACH PSM output
variables = x,y,z,
ZONE T="fuse:rgt:0:0",N=15,E=8,DATAPACKING=POINT, ZONETYPE = FEQUADRILATERAL
0.445581244906 -0.804625295991 -0.28648318883 
0.313211180901 -0.682969387224 -0.333416051421 
2.02114204823 -0.905985043839 -0.614048221758 
1.98902011052 -0.626870318101 -0.801648692913 
1.0426908297 -0.846140607582 -0.424363894492 
0.999759594779 -0.65511929943 -0.548939124934 
1.01579492459 -0.756898013311 -0.494285312169 
0.606056682509 -0.669652847412 -0.431223233315 
0.328670527251 -0.74540950272 -0.300539226213 
0.6784690382 -0.821468508851 -0.343426291625 
0.621434671869 -0.749708325696 -0.38840124123 
1.46914053252 -0.640486028064 -0.67595164017 
1.50224802963 -0.87539498748 -0.518252402759 
2.00618945811 -0.776058640265 -0.721771449508 
1.48597271135 -0.766005730017 -0.608604395954 
1 10 11 9 
9 11 8 2 
3 14 15 13 
12 15 14 4 
5 7 11 10 
13 15 7 5 
8 11 7 6 
6 7 15 12 
ZONE T="fuse:rgt:0:1",N=33,E=20,DATAPACKING=POINT, ZONETYPE = FEQUADRILATERAL
2.02114204823 -0.905985043839 -0.614048221758 
1.98902011052 -0.626870318101 -0.801648692913 
6.17044590421 -1.05733888352 -1.03147486412 
6.15893342603 -0.585432613716 -1.34660511862 
2.86105989026 -0.95038752737 -0.749072458919 
3.76493062999 -0.989204448691 -0.860888961071 
4.52344919426 -1.01564208236 -0.932407343284 
5.32706164554 -1.03818833541 -0.988608831031 
2.83018686181 -0.608982300043 -0.977924756857 
3.73819799968 -0.59612099056 -1.12390279257 
4.50130762288 -0.589491287576 -1.21727105903 
5.31009689377 -0.586068161047 -1.29064290176 
2.84668866048 -0.791465230344 -0.880483153427 
2.40363555408 -0.617472937415 -0.892503380798 
2.00618945811 -0.776058640265 -0.721771449508 
2.43541400913 -0.928682210636 -0.68364124904 
2.42062130824 -0.783815967833 -0.803573266512 
5.73101635066 -0.585507174093 -1.32014320841 
5.31916462903 -0.827728825861 -1.16204168317 
5.74527544516 -1.04805999252 -1.0112055256 
6.16508690604 -0.837669053138 -1.21242775794 
5.73863791006 -0.832744143425 -1.18860254441 
3.75248673312 -0.806226213184 -1.01191576117 
3.2749546681 -0.60186722851 -1.05507477004 
3.30410577634 -0.970574030692 -0.808167956248 
3.29053609107 -0.798942997416 -0.949945846038 
4.5131424103 -0.817271179494 -1.0959807006 
4.11456907271 -0.592438167936 -1.17287525612 
4.13911019197 -1.00286669965 -0.89840097131 
4.12768643162 -0.811814425683 -1.05600854922 
4.89914648193 -0.587322770637 -1.25681041842 
4.91875155525 -1.02747163704 -0.962693768438 
4.90962549589 -0.822584707105 -1.13158031026 
1 16 17 15 
15 17 14 2 
3 21 22 20 
4 18 22 21 
5 13 17 16 
25 26 13 5 
6 23 26 25 
29 30 23 6 
7 27 30 29 
32 33 27 7 
8 19 33 32 
20 22 19 8 
14 17 13 9 
9 13 26 24 
24 26 23 10 
23 30 28 10 
11 27 33 31 
28 30 27 11 
19 22 18 12 
12 31 33 19 
ZONE T="fuse:rgt:0:2",N=27,E=16,DATAPACKING=POINT, ZONETYPE = FEQUADRILATERAL
6.17044590421 -1.05733888352 -1.03147486412 
6.15893342603 -0.585432613716 -1.34660511862 
8.92576416978 -1.09283445357 -1.09453390036 
8.92517255458 -0.591880914271 -1.42892958894 
6.87520692189 -1.07090044038 -1.05879327182 
7.5765567385 -1.08167028899 -1.07794671671 
8.27578065013 -1.08931332306 -1.08987632562 
6.86783673832 -0.58639689374 -1.38226968908 
7.57248324893 -0.58834417346 -1.40727478429 
8.27406505805 -0.59049901721 -1.42284905874 
6.87177613954 -0.845366645388 -1.2445386674 
6.51259692319 -0.585739450512 -1.3658244661 
6.16508690604 -0.837669053138 -1.21242775794 
6.52194204267 -1.06443591407 -1.04619653226 
6.5175919383 -0.841605285017 -1.22973206637 
8.60738713106 -0.591344523225 -1.42701567192 
8.27498204966 -0.857117946629 -1.28107465947 
8.60837600856 -1.09162527607 -1.09306787499 
8.9254887745 -0.859643275477 -1.28654931827 
8.60791568982 -0.858747276451 -1.28482610627 
7.57466054945 -0.852029635633 -1.26705222462 
7.22201235303 -0.587300086891 -1.39605004324 
7.22761900084 -1.07666703963 -1.06934877069 
7.22500913488 -0.848869355257 -1.25694593038 
7.92812440689 -0.589460274524 -1.41630900949 
7.9308751937 -1.08597089416 -1.08486676771 
7.92959471566 -0.854847871269 -1.27518626867 
1 14 15 13 
13 15 12 2 
3 19 20 18 
4 16 20 19 
5 11 15 14 
23 24 11 5 
6 21 24 23 
26 27 21 6 
7 17 27 26 
18 20 17 7 
12 15 11 8 
8 11 24 22 
22 24 21 9 
9 21 27 25 
17 20 16 10 
10 25 27 17 
ZONE T="fuse:rgt:0:3",N=27,E=16,DATAPACKING=POINT, ZONETYPE = FEQUADRILATERAL
8.92576416978 -1.09283445357 -1.09453390036 
8.92517255458 -0.591880914271 -1.42892958894 
11.358421319 -1.09449660773 -1.09619710812 
11.3584213044 -0.592781139662 -1.43110093039 
9.67543020993 -1.09394667017 -1.09564682196 
10.4256057817 -1.09440301843 -1.0961034595 
11.176063533 -1.09449590867 -1.09619640862 
9.67523445931 -0.592483292585 -1.43038252397 
10.4255724563 -0.592730451546 -1.43097867078 
11.1760632696 -0.59278076105 -1.43110001718 
9.67533908726 -0.860518165094 -1.28785748108 
9.30016129484 -0.592236403966 -1.42978702922 
8.9254887745 -0.859643275477 -1.28654931827 
9.3005192931 -1.09349082106 -1.0951906839 
9.30035264522 -0.860159585967 -1.28732132216 
11.2672421785 -0.592781092335 -1.43110081624 
11.1760634088 -0.860950205998 -1.2885034824 
11.2672422242 -1.09449652035 -1.09619702068 
11.3584213106 -0.860950755891 -1.28850430462 
11.2672422013 -0.860950687155 -1.28850420184 
10.4255902543 -0.86087713686 -1.2883942271 
10.0503766468 -0.592641376366 -1.43076382166 
10.0504685096 -1.0942385522 -1.09593888901 
10.0504257448 -0.860747764758 -1.28820078581 
10.8008064531 -0.59277031436 -1.43107481979 
10.8008135818 -1.09447662016 -1.09617710788 
10.8008102602 -0.860935033306 -1.28848079571 
1 14 15 13 
13 15 12 2 
3 19 20 18 
4 16 20 19 
5 11 15 14 
23 24 11 5 
6 21 24 23 
26 27 21 6 
7 17 27 26 
18 20 17 7 
12 15 11 8 
8 11 24 22 
22 24 21 9 
9 21 27 25 
25 27 17 10 
17 20 16 10 
ZONE T="fuse:rgt:0:4",N=21,E=12,DATAPACKING=POINT, ZONETYPE = FEQUADRILATERAL
11.358421319 -1.09449660773 -1.09619710812 
11.3584213044 -0.592781139662 -1.43110093039 
13.7923685907 -1.09449660773 -1.09619710812 
13.7923685761 -0.592781139662 -1.43110093039 
12.1697371345 -1.09449660773 -1.09619710812 
12.9810528478 -1.09449660773 -1.09619710812 
12.1697371198 -0.592781139662 -1.43110093039 
12.9810528332 -0.592781139662 -1.43110093039 
12.1697371259 -0.860950755891 -1.28850430462 
11.7640792376 -0.592781139662 -1.43110093039 
11.3584213106 -0.860950755891 -1.28850430462 
11.7640792523 -1.09449660773 -1.09619710812 
11.7640792439 -0.860950755891 -1.28850430462 
13.3867106791 -0.592781139662 -1.43110093039 
12.9810528254 -0.860950755891 -1.28850430462 
13.3867106938 -1.09449660773 -1.09619710812 
13.7923685823 -0.860950755891 -1.28850430462 
13.3867106836 -0.860950755891 -1.28850430462 
12.5753949765 -0.592781139662 -1.43110093039 
12.5753949912 -1.09449660773 -1.09619710812 
12.575394981 -0.860950755891 -1.28850430462 
1 12 13 11 
11 13 10 2 
3 17 18 16 
14 18 17 4 
5 9 13 12 
20 21 9 5 
6 15 21 20 
16 18 15 6 
10 13 9 7 
7 9 21 19 
19 21 15 8 
8 15 18 14 
ZONE T="fuse:rgt:0:5",N=27,E=16,DATAPACKING=POINT, ZONETYPE = FEQUADRILATERAL
13.7923685907 -1.09449660773 -1.09619710812 
13.7923685761 -0.592781139662 -1.43110093039 
16.2263154031 -1.09449660773 -1.09619710812 
16.2263153884 -0.592781139662 -1.43110093039 
14.3167685462 -1.09449660773 -1.09619710812 
14.8411684013 -1.09449660773 -1.09619710812 
15.5337419339 -1.09449660773 -1.09619710812 
14.3167685316 -0.592781139662 -1.43110093039 
14.8411683867 -0.592781139662 -1.43110093039 
15.5337419193 -0.592781139662 -1.43110093039 
14.3167685378 -0.860950755891 -1.28850430462 
14.0545685681 -0.592781139662 -1.43110093039 
13.7923685823 -0.860950755891 -1.28850430462 
14.0545685828 -1.09449660773 -1.09619710812 
14.0545685743 -0.860950755891 -1.28850430462 
15.8800286578 -0.592781139662 -1.43110093039 
15.5337419255 -0.860950755891 -1.28850430462 
15.8800286725 -1.09449660773 -1.09619710812 
16.2263153946 -0.860950755891 -1.28850430462 
15.8800286641 -0.860950755891 -1.28850430462 
14.8411683929 -0.860950755891 -1.28850430462 
14.5789684699 -0.592781139662 -1.43110093039 
14.5789684846 -1.09449660773 -1.09619710812 
14.5789684762 -0.860950755891 -1.28850430462 
15.1874551649 -0.592781139662 -1.43110093039 
15.1874551795 -1.09449660773 -1.09619710812 
15.1874551711 -0.860950755891 -1.28850430462 
1 14 15 13 
13 15 12 2 
3 19 20 18 
4 16 20 19 
5 11 15 14 
23 24 11 5 
6 21 24 23 
26 27 21 6 
7 17 27 26 
18 20 17 7 
12 15 11 8 
8 11 24 22 
22 24 21 9 
21 27 25 9 
17 20 16 10 
10 25 27 17 
ZONE T="fuse:rgt:0:6",N=27,E=16,DATAPACKING=POINT, ZONETYPE = FEQUADRILATERAL
16.2263154031 -1.09449660773 -1.09619710812 
16.2263153884 -0.592781139662 -1.43110093039 
18.6602626748 -1.09449660773 -1.09619710812 
18.6602626601 -0.592781139662 -1.43110093039 
16.9863013962 -1.09449660773 -1.09619710812 
17.7462875911 -1.09449660773 -1.09619710812 
18.5062735843 -1.09449660773 -1.09619710812 
16.9863013815 -0.592781139662 -1.43110093039 
17.7462875765 -0.592781139662 -1.43110093039 
18.5062735697 -0.592781139662 -1.43110093039 
16.9863013876 -0.860950755891 -1.28850430462 
16.6063083388 -0.592781139662 -1.43110093039 
16.2263153946 -0.860950755891 -1.28850430462 
16.6063083534 -1.09449660773 -1.09619710812 
16.606308345 -0.860950755891 -1.28850430462 
18.5832681175 -0.592781139662 -1.43110093039 
18.5062735759 -0.860950755891 -1.28850430462 
18.5832681321 -1.09449660773 -1.09619710812 
18.6602626663 -0.860950755891 -1.28850430462 
18.5832681237 -0.860950755891 -1.28850430462 
17.3662944894 -1.09449660773 -1.09619710812 
17.7462875696 -0.860950755891 -1.28850430462 
17.3662944748 -0.592781139662 -1.43110093039 
17.3662944793 -0.860950755891 -1.28850430462 
18.1262806108 -0.592781139662 -1.43110093039 
18.1262806254 -1.09449660773 -1.09619710812 
18.1262806154 -0.860950755891 -1.28850430462 
1 14 15 13 
13 15 12 2 
3 19 20 18 
4 16 20 19 
5 11 15 14 
21 24 11 5 
6 22 24 21 
26 27 22 6 
7 17 27 26 
18 20 17 7 
12 15 11 8 
11 24 23 8 
23 24 22 9 
22 27 25 9 
17 20 16 10 
10 25 27 17 
ZONE T="fuse:rgt:0:7",N=21,E=12,DATAPACKING=POINT, ZONETYPE = FEQUADRILATERAL
18.6602626748 -1.09449660773 -1.09619710812 
18.6602626601 -0.592781139662 -1.43110093039 
21.0942099465 -1.09449660773 -1.09619710812 
21.0942099318 -0.592781139662 -1.43110093039 
19.4715783881 -1.09449660773 -1.09619710812 
20.2828943056 -1.09449660773 -1.09619710812 
19.4715783735 -0.592781139662 -1.43110093039 
20.282894291 -0.592781139662 -1.43110093039 
19.4715783795 -0.860950755891 -1.28850430462 
19.0659204657 -0.592781139662 -1.43110093039 
18.6602626663 -0.860950755891 -1.28850430462 
19.0659204804 -1.09449660773 -1.09619710812 
19.065920472 -0.860950755891 -1.28850430462 
20.6885521625 -0.592781139662 -1.43110093039 
20.2828942832 -0.860950755891 -1.28850430462 
20.6885521771 -1.09449660773 -1.09619710812 
21.0942099381 -0.860950755891 -1.28850430462 
20.6885521669 -0.860950755891 -1.28850430462 
19.8772363322 -0.592781139662 -1.43110093039 
19.8772363469 -1.09449660773 -1.09619710812 
19.8772363367 -0.860950755891 -1.28850430462 
1 12 13 11 
11 13 10 2 
3 17 18 16 
14 18 17 4 
5 9 13 12 
20 21 9 5 
6 15 21 20 
16 18 15 6 
10 13 9 7 
7 9 21 19 
19 21 15 8 
8 15 18 14 
ZONE T="fuse:rgt:0:8",N=25,E=15,DATAPACKING=POINT, ZONETYPE = FEQUADRILATERAL
21.0942099465 -1.09449660773 -1.09619710812 
21.0942099318 -0.592781139662 -1.43110093039 
23.528158137 -1.09449660773 -1.09619710812 
23.5281581223 -0.592781139662 -1.43110093039 
21.5693464264 -1.09449660773 -1.09619710812 
22.0444830754 -1.09449660773 -1.09619710812 
22.7863205281 -1.09449660773 -1.09619710812 
22.0444830607 -0.592781139662 -1.43110093039 
22.7863205135 -0.592781139662 -1.43110093039 
22.044483067 -0.860950755891 -1.28850430462 
21.8069147323 -1.09449660773 -1.09619710812 
21.709319092 -0.904207523136 -1.25852624231 
21.8698382304 -0.950323719094 -1.22407694857 
21.5693464117 -0.592781139662 -1.43110093039 
21.0942099381 -0.860950755891 -1.28850430462 
21.3317781627 -1.09449660773 -1.09619710812 
21.4383628294 -0.866413191791 -1.28483762804 
23.1572393082 -0.592781139662 -1.43110093039 
22.7863205197 -0.860950755891 -1.28850430462 
23.1572393228 -1.09449660773 -1.09619710812 
23.5281581286 -0.860950755891 -1.28850430462 
23.1572393144 -0.860950755891 -1.28850430462 
22.4154017578 -0.592781139662 -1.43110093039 
22.4154017725 -1.09449660773 -1.09619710812 
22.4154017641 -0.860950755891 -1.28850430462 
1 16 17 15 
15 17 14 2 
3 21 22 20 
4 18 22 21 
5 12 17 16 
11 13 12 5 
6 10 13 11 
24 25 10 6 
7 19 25 24 
20 22 19 7 
14 17 12 8 
12 13 10 8 
10 25 23 8 
19 22 18 9 
9 23 25 19 
ZONE T="fuse:rgt:0:9",N=27,E=16,DATAPACKING=POINT, ZONETYPE = FEQUADRILATERAL
23.528158137 -1.09449660773 -1.09619710812 
23.5281581223 -0.592781139662 -1.43110093039 
25.9621054087 -1.09449660773 -1.09619710812 
25.962105394 -0.592781139662 -1.43110093039 
24.2939997633 -1.09449660773 -1.09619710812 
25.0598409849 -1.09449660773 -1.09619710812 
25.8256824203 -1.09449660773 -1.09619710812 
24.2939997486 -0.592781139662 -1.43110093039 
25.0598409703 -0.592781139662 -1.43110093039 
25.8256824057 -0.592781139662 -1.43110093039 
24.2939997546 -0.860950755891 -1.28850430462 
23.911079029 -0.592781139662 -1.43110093039 
23.5281581286 -0.860950755891 -1.28850430462 
23.9110790436 -1.09449660773 -1.09619710812 
23.9110790352 -0.860950755891 -1.28850430462 
25.8938938958 -0.592781139662 -1.43110093039 
25.8256824119 -0.860950755891 -1.28850430462 
25.8938939104 -1.09449660773 -1.09619710812 
25.9621054003 -0.860950755891 -1.28850430462 
25.893893902 -0.860950755891 -1.28850430462 
25.0598409632 -0.860950755891 -1.28850430462 
24.6769203671 -0.592781139662 -1.43110093039 
24.6769203817 -1.09449660773 -1.09619710812 
24.6769203716 -0.860950755891 -1.28850430462 
25.4427616098 -0.592781139662 -1.43110093039 
25.4427616244 -1.09449660773 -1.09619710812 
25.4427616143 -0.860950755891 -1.28850430462 
1 14 15 13 
13 15 12 2 
3 19 20 18 
4 16 20 19 
5 11 15 14 
23 24 11 5 
6 21 24 23 
26 27 21 6 
7 17 27 26 
18 20 17 7 
12 15 11 8 
11 24 22 8 
22 24 21 9 
21 27 25 9 
17 20 16 10 
10 25 27 17 
ZONE T="fuse:rgt:0:10",N=21,E=12,DATAPACKING=POINT, ZONETYPE = FEQUADRILATERAL
25.9621054087 -1.09449660773 -1.09619710812 
25.962105394 -0.592781139662 -1.43110093039 
28.3960526804 -1.09449660773 -1.09619710812 
28.3960526657 -0.592781139662 -1.43110093039 
26.8087366879 -1.09449660773 -1.09619710812 
27.6553675612 -1.09449660773 -1.09619710812 
26.8087366733 -0.592781139662 -1.43110093039 
27.6553675466 -0.592781139662 -1.43110093039 
26.8087366795 -0.860950755891 -1.28850430462 
26.3854211424 -0.592781139662 -1.43110093039 
25.9621054003 -0.860950755891 -1.28850430462 
26.3854211571 -1.09449660773 -1.09619710812 
26.3854211486 -0.860950755891 -1.28850430462 
28.0257100174 -0.592781139662 -1.43110093039 
27.6553675528 -0.860950755891 -1.28850430462 
28.025710032 -1.09449660773 -1.09619710812 
28.396052672 -0.860950755891 -1.28850430462 
28.0257100236 -0.860950755891 -1.28850430462 
27.2320521027 -0.592781139662 -1.43110093039 
27.2320521173 -1.09449660773 -1.09619710812 
27.2320521089 -0.860950755891 -1.28850430462 
1 12 13 11 
11 13 10 2 
3 17 18 16 
4 14 18 17 
5 9 13 12 
20 21 9 5 
6 15 21 20 
16 18 15 6 
10 13 9 7 
7 9 21 19 
19 21 15 8 
15 18 14 8 
ZONE T="fuse:rgt:0:11",N=25,E=15,DATAPACKING=POINT, ZONETYPE = FEQUADRILATERAL
28.3960526804 -1.09449660773 -1.09619710812 
28.3960526657 -0.592781139662 -1.43110093039 
30.8299999521 -1.09449660773 -1.09619710812 
30.8299999374 -0.592781139662 -1.43110093039 
29.1376636313 -1.09449660773 -1.09619710812 
29.8792741823 -1.09449660773 -1.09619710812 
30.3546369391 -1.09449660773 -1.09619710812 
29.1376636166 -0.592781139662 -1.43110093039 
29.8792741677 -0.592781139662 -1.43110093039 
30.2145976141 -0.904207523136 -1.25852624231 
30.1169555389 -1.09449660773 -1.09619710812 
29.8792741739 -0.860950755891 -1.28850430462 
30.0540020895 -0.950323719094 -1.22407694857 
29.1376636229 -0.860950755891 -1.28850430462 
28.7668582301 -0.592781139662 -1.43110093039 
28.396052672 -0.860950755891 -1.28850430462 
28.7668582448 -1.09449660773 -1.09619710812 
28.7668582364 -0.860950755891 -1.28850430462 
30.3546369244 -0.592781139662 -1.43110093039 
30.5923184033 -1.09449660773 -1.09619710812 
30.8299999437 -0.860950755891 -1.28850430462 
30.4856829181 -0.866413191791 -1.28483762804 
29.5084689032 -0.592781139662 -1.43110093039 
29.5084689178 -1.09449660773 -1.09619710812 
29.5084689094 -0.860950755891 -1.28850430462 
1 17 18 16 
16 18 15 2 
3 21 22 20 
4 19 22 21 
5 14 18 17 
24 25 14 5 
6 12 25 24 
11 13 12 6 
7 10 13 11 
20 22 10 7 
15 18 14 8 
8 14 25 23 
23 25 12 9 
9 12 13 10 
10 22 19 9 
ZONE T="fuse:rgt:0:12",N=31,E=19,DATAPACKING=POINT, ZONETYPE = FEQUADRILATERAL
30.8299999521 -1.09449660773 -1.09619710812 
30.8299999374 -0.592781139662 -1.43110093039 
33.2639472238 -1.09449660773 -1.09619710812 
33.2639472091 -0.592781139662 -1.43110093039 
31.5042554847 -1.09449660773 -1.09619710812 
31.8413831476 -1.09449660773 -1.09619710812 
32.1785107829 -1.09449660773 -1.09619710812 
32.8527655521 -1.09449660773 -1.09619710812 
31.5042554701 -0.592781139662 -1.43110093039 
32.1785107683 -0.592781139662 -1.43110093039 
32.8527655374 -0.592781139662 -1.43110093039 
31.7329571773 -0.911827367483 -1.25301652077 
31.6728193253 -1.09449660773 -1.09619710812 
31.4404649373 -0.911815972734 -1.25302481271 
31.6160225961 -0.959698490555 -1.21674087656 
31.1671277184 -0.592781139662 -1.43110093039 
30.8299999437 -0.860950755891 -1.28850430462 
31.167127733 -1.09449660773 -1.09619710812 
31.1591539063 -0.867386006606 -1.28418108758 
33.0583564093 -0.592781139662 -1.43110093039 
32.8527655437 -0.860950755891 -1.28850430462 
33.0583564239 -1.09449660773 -1.09619710812 
33.2639472154 -0.860950755891 -1.28850430462 
33.0583564155 -0.860950755891 -1.28850430462 
32.0099469781 -1.09449660773 -1.09619710812 
32.2121059714 -0.861782513857 -1.28794815344 
31.8413831631 -0.592781139662 -1.43110093039 
31.9373817044 -0.86749110675 -1.28411009262 
32.5156382261 -0.592781139662 -1.43110093039 
32.5156382408 -1.09449660773 -1.09619710812 
32.5198376304 -0.861054745271 -1.28843481509 
1 18 19 17 
17 19 16 2 
3 23 24 22 
4 20 24 23 
5 14 19 18 
13 15 14 5 
6 12 15 13 
25 28 12 6 
7 26 28 25 
30 31 26 7 
8 21 31 30 
22 24 21 8 
16 19 14 9 
9 12 28 27 
14 15 12 9 
27 28 26 10 
10 26 31 29 
29 31 21 11 
21 24 20 11 
ZONE T="fuse:rgt:0:13",N=21,E=12,DATAPACKING=POINT, ZONETYPE = FEQUADRILATERAL
33.2639472238 -1.09449660773 -1.09619710812 
33.2639472091 -0.592781139662 -1.43110093039 
35.6978944955 -1.09449660773 -1.09619710812 
35.6978944809 -0.592781139662 -1.43110093039 
34.0752623246 -1.09449660773 -1.09619710812 
34.8865782421 -1.09449660773 -1.09619710812 
34.07526231 -0.592781139662 -1.43110093039 
34.8865782275 -0.592781139662 -1.43110093039 
34.075262316 -0.860950755891 -1.28850430462 
33.6696046319 -0.592781139662 -1.43110093039 
33.2639472154 -0.860950755891 -1.28850430462 
33.6696046466 -1.09449660773 -1.09619710812 
33.6696046382 -0.860950755891 -1.28850430462 
35.2922363287 -0.592781139662 -1.43110093039 
34.8865782197 -0.860950755891 -1.28850430462 
35.2922363433 -1.09449660773 -1.09619710812 
35.6978944871 -0.860950755891 -1.28850430462 
35.2922363331 -0.860950755891 -1.28850430462 
34.4809201922 -0.592781139662 -1.43110093039 
34.4809202068 -1.09449660773 -1.09619710812 
34.4809201966 -0.860950755891 -1.28850430462 
1 12 13 11 
11 13 10 2 
3 17 18 16 
14 18 17 4 
5 9 13 12 
20 21 9 5 
6 15 21 20 
16 18 15 6 
10 13 9 7 
7 9 21 19 
19 21 15 8 
8 15 18 14 
ZONE T="fuse:rgt:0:14",N=27,E=16,DATAPACKING=POINT, ZONETYPE = FEQUADRILATERAL
35.6978944955 -1.09449660773 -1.09619710812 
35.6978944809 -0.592781139662 -1.43110093039 
38.1318417672 -1.09449660773 -1.09619710812 
38.1318417526 -0.592781139662 -1.43110093039 
35.7589098429 -1.09449660773 -1.09619710812 
36.5498877083 -1.09449660773 -1.09619710812 
37.3408651661 -1.09449660773 -1.09619710812 
35.7589098283 -0.592781139662 -1.43110093039 
36.5498876937 -0.592781139662 -1.43110093039 
37.3408651515 -0.592781139662 -1.43110093039 
35.7589098345 -0.860950755891 -1.28850430462 
35.7284021546 -0.592781139662 -1.43110093039 
35.6978944871 -0.860950755891 -1.28850430462 
35.7284021692 -1.09449660773 -1.09619710812 
35.7284021608 -0.860950755891 -1.28850430462 
37.7363535739 -0.592781139662 -1.43110093039 
37.340865144 -0.860950755891 -1.28850430462 
37.7363535886 -1.09449660773 -1.09619710812 
38.1318417588 -0.860950755891 -1.28850430462 
37.7363535784 -0.860950755891 -1.28850430462 
36.5498876997 -0.860950755891 -1.28850430462 
36.1543987883 -0.592781139662 -1.43110093039 
36.1543988029 -1.09449660773 -1.09619710812 
36.1543987945 -0.860950755891 -1.28850430462 
36.9453764972 -0.592781139662 -1.43110093039 
36.9453765118 -1.09449660773 -1.09619710812 
36.9453765017 -0.860950755891 -1.28850430462 
1 14 15 13 
13 15 12 2 
3 19 20 18 
4 16 20 19 
5 11 15 14 
23 24 11 5 
6 21 24 23 
26 27 21 6 
7 17 27 26 
18 20 17 7 
12 15 11 8 
11 24 22 8 
9 21 27 25 
22 24 21 9 
17 20 16 10 
10 25 27 17 
ZONE T="fuse:rgt:0:15",N=27,E=16,DATAPACKING=POINT, ZONETYPE = FEQUADRILATERAL
38.1318417672 -1.09449660773 -1.09619710812 
38.1318417526 -0.592781139662 -1.43110093039 
40.5657890389 -1.09449660773 -1.09619710812 
40.5657890243 -0.592781139662 -1.43110093039 
38.7779278167 -1.09449660773 -1.09619710812 
39.4240144368 -1.09449660773 -1.09619710812 
39.9949016667 -1.09449660773 -1.09619710812 
38.777927802 -0.592781139662 -1.43110093039 
39.4240144221 -0.592781139662 -1.43110093039 
39.9949016521 -0.592781139662 -1.43110093039 
38.7779278082 -0.860950755891 -1.28850430462 
38.4548846931 -0.592781139662 -1.43110093039 
38.1318417588 -0.860950755891 -1.28850430462 
38.4548847077 -1.09449660773 -1.09619710812 
38.4548846993 -0.860950755891 -1.28850430462 
40.2803453293 -0.592781139662 -1.43110093039 
39.9949016583 -0.860950755891 -1.28850430462 
40.2803453439 -1.09449660773 -1.09619710812 
40.5657890305 -0.860950755891 -1.28850430462 
40.2803453355 -0.860950755891 -1.28850430462 
39.4240144284 -0.860950755891 -1.28850430462 
39.1009710536 -0.592781139662 -1.43110093039 
39.1009710683 -1.09449660773 -1.09619710812 
39.1009710599 -0.860950755891 -1.28850430462 
39.7094580104 -0.592781139662 -1.43110093039 
39.7094580251 -1.09449660773 -1.09619710812 
39.7094580167 -0.860950755891 -1.28850430462 
1 14 15 13 
13 15 12 2 
3 19 20 18 
4 16 20 19 
5 11 15 14 
23 24 11 5 
6 21 24 23 
26 27 21 6 
7 17 27 26 
18 20 17 7 
12 15 11 8 
8 11 24 22 
22 24 21 9 
9 21 27 25 
17 20 16 10 
10 25 27 17 
ZONE T="fuse:rgt:0:16",N=21,E=12,DATAPACKING=POINT, ZONETYPE = FEQUADRILATERAL
40.5657890389 -1.09449660773 -1.09619710812 
40.5657890243 -0.592781139662 -1.43110093039 
42.9997363106 -1.09449660773 -1.09619710812 
42.999736296 -0.592781139662 -1.43110093039 
41.3771053648 -1.09449660773 -1.09619710812 
42.1884212823 -1.09449660773 -1.09619710812 
41.3771053502 -0.592781139662 -1.43110093039 
42.1884212677 -0.592781139662 -1.43110093039 
41.3771053562 -0.860950755891 -1.28850430462 
40.9714472127 -0.592781139662 -1.43110093039 
40.5657890305 -0.860950755891 -1.28850430462 
40.9714472274 -1.09449660773 -1.09619710812 
40.9714472189 -0.860950755891 -1.28850430462 
42.5940789094 -0.592781139662 -1.43110093039 
42.1884212599 -0.860950755891 -1.28850430462 
42.5940789241 -1.09449660773 -1.09619710812 
42.9997363022 -0.860950755891 -1.28850430462 
42.5940789139 -0.860950755891 -1.28850430462 
41.7827633855 -0.592781139662 -1.43110093039 
41.7827634001 -1.09449660773 -1.09619710812 
41.7827633899 -0.860950755891 -1.28850430462 
1 12 13 11 
11 13 10 2 
3 17 18 16 
14 18 17 4 
5 9 13 12 
20 21 9 5 
6 15 21 20 
16 18 15 6 
10 13 9 7 
7 9 21 19 
19 21 15 8 
8 15 18 14 
ZONE T="fuse:rgt:0:17",N=27,E=16,DATAPACKING=POINT, ZONETYPE = FEQUADRILATERAL
42.9997363106 -1.09449660773 -1.09619710812 
42.999736296 -0.592781139662 -1.43110093039 
45.4336835823 -1.09449660773 -1.09619710812 
45.4336835677 -0.592781139662 -1.43110093039 
43.0891202937 -1.09449660773 -1.09619710812 
43.8706408049 -1.09449660773 -1.09619710812 
44.652162046 -1.09449660773 -1.09619710812 
43.0891202791 -0.592781139662 -1.43110093039 
43.8706407902 -0.592781139662 -1.43110093039 
44.6521620314 -0.592781139662 -1.43110093039 
43.0891202853 -0.860950755891 -1.28850430462 
43.0444282857 -0.592781139662 -1.43110093039 
42.9997363022 -0.860950755891 -1.28850430462 
43.0444283003 -1.09449660773 -1.09619710812 
43.0444282919 -0.860950755891 -1.28850430462 
45.0429227767 -0.592781139662 -1.43110093039 
44.6521620241 -0.860950755891 -1.28850430462 
45.0429227914 -1.09449660773 -1.09619710812 
45.4336835739 -0.860950755891 -1.28850430462 
45.0429227813 -0.860950755891 -1.28850430462 
43.8706407962 -0.860950755891 -1.28850430462 
43.4798804206 -0.592781139662 -1.43110093039 
43.4798804352 -1.09449660773 -1.09619710812 
43.4798804268 -0.860950755891 -1.28850430462 
44.2614013424 -0.592781139662 -1.43110093039 
44.261401357 -1.09449660773 -1.09619710812 
44.2614013469 -0.860950755891 -1.28850430462 
1 14 15 13 
13 15 12 2 
3 19 20 18 
4 16 20 19 
5 11 15 14 
23 24 11 5 
6 21 24 23 
26 27 21 6 
7 17 27 26 
18 20 17 7 
12 15 11 8 
11 24 22 8 
9 21 27 25 
22 24 21 9 
17 20 16 10 
10 25 27 17 
ZONE T="fuse:rgt:0:18",N=27,E=16,DATAPACKING=POINT, ZONETYPE = FEQUADRILATERAL
45.4336835823 -1.09449660773 -1.09619710812 
45.4336835677 -0.592781139662 -1.43110093039 
47.8676326962 -0.990435735284 -0.991974558098 
47.8676326829 -0.536421602201 -1.2950369076 
46.0927492052 -1.08408470061 -1.08576902419 
46.7518148289 -1.05698106145 -1.05862327459 
47.3097237624 -1.02558829593 -1.02718173467 
46.0927491907 -0.587142033859 -1.41748691837 
46.7518148147 -0.57246265889 -1.3820477558 
47.3097237487 -0.555460286118 -1.34100037783 
46.0927491969 -0.85276056211 -1.2762468092 
45.7632163791 -0.59130142751 -1.42752858759 
45.4336835739 -0.860950755891 -1.28850430462 
45.7632163937 -1.09176450338 -1.09346075894 
45.7632163853 -0.858801633373 -1.28528791437 
47.5886782158 -0.546068213606 -1.31832589848 
47.3097237546 -0.806746236012 -1.20738147998 
47.5886782293 -1.0082470028 -1.00981349868 
47.8676326886 -0.779094598311 -1.16599786545 
47.5886782216 -0.793105262325 -1.18696631315 
46.7518148207 -0.831440351109 -1.24433884761 
46.4222820026 -0.580722572916 -1.40198896151 
46.422282017 -1.07223196483 -1.07389787302 
46.4222820087 -0.843436986542 -1.26229308749 
47.0307692817 -0.564343280844 -1.36244583412 
47.0307692956 -1.04198964028 -1.0436085615 
47.0307692876 -0.819647829049 -1.22669008509 
1 14 15 13 
13 15 12 2 
3 19 20 18 
4 16 20 19 
5 11 15 14 
23 24 11 5 
6 21 24 23 
26 27 21 6 
7 17 27 26 
18 20 17 7 
12 15 11 8 
8 11 24 22 
22 24 21 9 
9 21 27 25 
17 20 16 10 
10 25 27 17 
ZONE T="fuse:rgt:0:19",N=21,E=12,DATAPACKING=POINT, ZONETYPE = FEQUADRILATERAL
47.8676326962 -0.990435735284 -0.991974558098 
47.8676326829 -0.536421602201 -1.2950369076 
50.3015781371 -0.834344662306 -0.835640969129 
50.301578126 -0.451882423662 -1.0909411816 
48.6789481396 -0.938405358615 -0.939863342736 
49.4902627663 -0.886375034323 -0.887752179832 
48.678948127 -0.508241865726 -1.22700497408 
49.4902627544 -0.480062157618 -1.15897310904 
48.6789481321 -0.73816656638 -1.104744716 
48.2732906092 -0.522331726872 -1.26102092372 
47.8676326886 -0.779094598311 -1.16599786545 
48.2732906221 -0.964420533855 -0.965918937303 
48.2732906146 -0.758630572041 -1.1353712753 
49.895920236 -0.465972297732 -1.12495716244 
49.4902627454 -0.697238576335 -1.04349162923 
49.8959202475 -0.860359861409 -0.861696587595 
50.3015781307 -0.656310547343 -0.982238484178 
49.8959202391 -0.676774571874 -1.01286507172 
49.0846054407 -0.494152011672 -1.19298904156 
49.0846054529 -0.912390196469 -0.913807761284 
49.0846054441 -0.717702571088 -1.07411817221 
1 12 13 11 
11 13 10 2 
3 17 18 16 
14 18 17 4 
5 9 13 12 
20 21 9 5 
6 15 21 20 
16 18 15 6 
10 13 9 7 
7 9 21 19 
19 21 15 8 
8 15 18 14 
ZONE T="fuse:rgt:0:20",N=27,E=16,DATAPACKING=POINT, ZONETYPE = FEQUADRILATERAL
50.3015781371 -0.834344662306 -0.835640969129 
50.301578126 -0.451882423662 -1.0909411816 
52.7355272533 -0.678253353633 -0.679307144098 
52.7355272442 -0.367343117471 -0.88684514741 
50.3827550389 -0.829138715828 -0.830426934262 
51.167012467 -0.778843593597 -0.780053669373 
51.9512698952 -0.728548471367 -0.729680404484 
50.3827550278 -0.449062874598 -1.08413418485 
51.1670124566 -0.421822954744 -1.01837117041 
51.9512698855 -0.39458303489 -0.95260815597 
50.3827550325 -0.652215456026 -0.976109744811 
50.3421665769 -0.45047264913 -1.08753768322 
50.3015781307 -0.656310547343 -0.982238484178 
50.342166588 -0.831741689067 -0.833033951695 
50.3421665816 -0.654263001684 -0.979174114494 
52.3433985648 -0.38096307618 -0.91972665169 
51.951269876 -0.57308935765 -0.857689129385 
52.3433985742 -0.7034009125 -0.704493774291 
52.7355272481 -0.533526310973 -0.798478825429 
52.3433985671 -0.553307834055 -0.828083977022 
51.1670124608 -0.612652406507 -0.916899436602 
50.7748837422 -0.435442914671 -1.05125267763 
50.774883753 -0.803991154713 -0.805240301817 
50.7748837467 -0.632433931262 -0.9465045907 
51.559141171 -0.408202994817 -0.98548966319 
51.5591411811 -0.753696032482 -0.754867036928 
51.5591411736 -0.592870881818 -0.887294282603 
1 14 15 13 
13 15 12 2 
3 19 20 18 
4 16 20 19 
5 11 15 14 
23 24 11 5 
6 21 24 23 
26 27 21 6 
7 17 27 26 
18 20 17 7 
12 15 11 8 
11 24 22 8 
22 24 21 9 
21 27 25 9 
17 20 16 10 
10 25 27 17 
ZONE T="fuse:rgt:0:21",N=29,E=18,DATAPACKING=POINT, ZONETYPE = FEQUADRILATERAL
52.7355272533 -0.678253353633 -0.679307144098 
52.7355272442 -0.367343117471 -0.88684514741 
55.1694726942 -0.522162280655 -0.522973555129 
55.1694726872 -0.282803938932 -0.682749421406 
53.2334513728 -0.646321039633 -0.647325217416 
53.8787916524 -0.604934796959 -0.605874673655 
54.2014616767 -0.584241683024 -0.585149409189 
54.524131838 -0.563548560305 -0.564424135924 
53.2334513641 -0.350048524367 -0.845092286824 
54.2014616689 -0.316426244042 -0.763920884032 
54.2014616828 -0.514645394389 -0.647628089324 