TITLE = "Visualization of CSM meshes"
VARIABLES = "x"  "y"  "z" 

ZONE
T="Zone Title"
DATAPACKING=Block
ZONETYPE=FEQUADRILATERAL
N=11158 E=12123
-0.638589572	0.397356657	-0.253824204	-0.48986221	0.0488176754
3.35017955	0.812800294	1.2565815	1.8986552
2.59676785	0.602563189	2.96856369	1.03002325
1.57089562	2.23984127	5.23964031	3.49470491
4.44165325	3.42240893	4.86863131	3.97743487
6.67578966	5.44456237	6.06150871	5.34218012
6.36881579	5.75353529	8.10631592	7.30598627
6.99088799	7.70615107	9.53684191	8.63508694
9.16385782	8.37070145	9.35034986	8.89947239
10.9673682	10.252105	9.89447342	10.6097367
12.3978944	11.0217292	11.7098118	10.9945487
12.0538532	11.3657705	13.8284212	12.8304836
12.614189	13.3294523	15.2589475	14.4071105
14.9857996	14.696455	14.117766	15.1223735
16.6894737	15.9742106	15.6165791	16.3318421
18.12	16.9185956	17.5192977	16.8040347
17.8196488	17.2189467	19.5505263	18.7078091
19.2956177	18.4139046	19.423072	19.0017135
20.9810525	20.265789	19.9081575	20.6234207
22.4115788	21.0889575	21.7502685	21.035005
22.0809238	21.4196131	23.842105	22.9468285
22.6792035	23.3944667	25.2726313	24.8047008
24.323403	25.0386661	26.7031576	25.9676012
26.6625719	25.6201161	26.6828647	26.3150865
28.1336849	27.4184212	27.0607894	27.7760531
29.5642101	28.5084399	29.0363247	28.3210625
29.3002673	28.7723823	30.9947374	30.3362716
29.9502408	30.6655045	32.4252626	31.6561176
32.3174976	31.3254277	32.3713801	31.9868074
34.8094737	33.3335541	34.2418455	32.8794084
34.5256597	33.7876999	36.0072592	35.4956439
35.1634684	35.7841807	-0.608868416	-0.368906601
-0.52824769	0.415900668	0.470896294	0.558845524
-0.0435310888	-0.229831803	-0.463037195	-0.574574312
-0.379974581	-0.494667169	-0.30290649	-0.470619436
-0.251677791	-0.363854778	0.439047342	0.0700475539
0.0359479787	0.186059256	0.233865889	0.510902578
0.102307901	0.288482523	-0.247911473	-0.630614544
-0.483034267	0.401852318	0.0539765008	-0.159618311
3.35420193	3.36613095	3.38520787	1.36904165
2.31016203	1.26949547	1.30779419	0.828447781
1.90825966	2.60341074	1.79359344	2.48469158
1.53385746	1.33565439	1.67240405	1.49717651
1.28561472	1.04427694	0.961206655	1.11181457
0.816593746	0.619644579	0.606704265	0.820556073
0.724840506	2.97386607	2.59837829	3.35115471
2.96984916	0.949065006	0.901877688	2.91207981
2.5492913	3.35922264	2.94452629	2.83308628
2.40264726	3.37480865	2.87397114	1.25971226
1.0334788	1.90098363	1.58211296	1.57361507
2.24791632	2.24179892	2.10805536	1.82347826
1.98292501	1.8583781	1.56113207	2.1864989
5.23982983	5.2403918	5.24129049	3.52574306
4.45206259	3.49826909	3.50883924	4.44284859
4.44639353	3.49556899	3.42619897	3.42332777
3.50271788	3.43743894	3.43092968	4.86914216
4.44194305	5.23968626	4.86875517	3.51652844
3.45541394	3.4456154	4.87065708	4.4443406
5.24006635	4.86977976	5.2408006	4.87307974
4.44897227	4.8717591	3.97965546	3.97797322
3.98624097	3.99677253	3.99103156	3.98242719
6.67578969	6.67578973	6.67578976	5.44560542
6.06163918	5.44468217	5.44503739	6.06152372
6.06156815	5.44459142	5.34233212	5.34221698
5.44483168	5.34278284	5.34252183	6.3688177
6.06151236	6.67578968	6.36881626	5.44529578
5.34350361	5.34311071	6.36882328	6.06154242
6.67578971	6.36882005	6.67578974	6.36883219
6.06160046	6.36882734	5.75358585	5.75354755
5.75373572	5.75397538	5.75384474	5.75364893
8.10631595	8.10631599	8.10631602	7.30598637
7.30598631	7.30598634	7.30598629	6.99088802
6.990888	7.30598632	6.99088806	6.99088804
7.7061511	8.10631594	7.70615108	7.30598635
6.99088808	6.99088807	7.70615113	8.10631597
7.70615112	8.106316	7.70615116	7.70615115
9.53684194	9.53684198	9.536842	8.63508703
9.16385791	9.16385785	9.16385789	8.63508697
8.37070149	8.42695374	8.29194837	8.42695377
8.37070155	8.29194841	8.84322025	8.89947249
9.1638579	8.97822559	8.84322022	9.16385787
8.89947242	8.97822554	8.63508695	8.37070147
9.3503499	9.16385783	9.53684192	9.35034988
8.63508701	9.35034993	9.53684196	9.35034992
9.53684199	9.35034996	9.35034995	8.89947241
10.9673682	10.9673682	10.9673683	10.2521051
10.2521051	10.2521051	10.2521051	9.89447346
9.89447344	10.2521051	9.89447349	9.89447347
10.6097367	10.9673682	10.6097367	10.2521051
9.89447352	9.89447351	10.6097367	10.9673682
10.6097367	10.6097367	10.9673682	10.6097367
12.3978945	12.3978945	12.3978945	11.0217293
11.7098119	11.0217293	11.0217293	11.7098119
11.7098119	11.0217292	10.9945487	10.9945487
11.0217293	10.9945488	10.9945487	12.0538532
11.7098119	12.3978944	12.0538532	11.0217293
10.9945488	10.9945488	12.0538532	11.7098119
12.3978945	12.0538532	12.3978945	12.0538533
11.7098119	12.0538533	11.3657705	11.3657705
11.3657706	11.3657706	11.3657706	11.3657705
13.8284213	13.8284213	13.8284213	12.8304837
12.8304836	12.8304837	13.3294524	13.1824589
12.8304836	13.079968	13.0138883	12.8304837
13.1918771	13.0154581	12.614189	12.614189
12.6141891	12.614189	13.8284212	13.5789368
13.4670059	12.8304837	12.6141891	12.6141891
13.3939846	13.8284213	13.4762498	13.8284213
13.3294524	13.337519	15.2589475	15.2589476
15.2589476	14.4071106	14.9857997	14.9857997
14.9857997	14.9857996	14.5775892	14.7730923
14.5666663	14.6964551	14.9857997	14.7712718
14.4071106	14.24758	14.9857997	14.3322681
14.3977553	15.1223736	15.2589475	15.1223735
14.1177661	14.2368594	15.1223736	15.2589475
15.1223736	15.2589476	15.1223736	15.1223736
16.6894738	16.6894738	16.6894738	15.9742107
15.9742106	15.9742107	15.9742106	15.6165792
15.6165792	15.9742107	15.6165792	15.6165792
16.3318421	16.6894738	16.3318421	15.9742107
15.6165792	15.6165792	16.3318421	16.6894738
16.3318421	16.3318422	16.6894738	16.3318422
18.12	18.1200001	18.1200001	16.9185957
17.5192978	16.9185956	16.9185957	17.5192977
18.1200001	17.8196488	17.7557443	17.9091151
18.1200001	17.7557444	17.8196489	17.9091152
16.9185957	17.2189468	17.2828512	17.1294805
17.2189467	16.9185956	17.2828512	17.1294805
16.9185956	16.8040347	16.8040347	16.8040347
16.8040347	17.5192977	18.12	17.8196488
16.8040348	16.8040348	17.5192978	17.2189467
19.5505263	19.5505263	19.5505264	18.7078092
19.2956178	19.2956178	19.2956178	18.7078091
18.4139046	18.4764375	18.3263586	18.4764375
18.4139047	18.3263586	18.9391807	19.0017136
19.2956178	19.0892596	18.9391807	19.2956178
19.0017135	19.0892595	18.7078091	18.4139046
19.4230721	19.2956178	19.5505263	19.423072
18.7078092	19.4230721	19.5505263	19.4230721
19.5505263	19.4230721	19.4230721	19.0017135
20.9810526	20.9810526	20.9810526	20.2657891
20.265789	20.2657891	20.265789	19.9081575
19.9081575	20.265789	19.9081575	19.9081575
20.6234207	20.9810525	20.6234207	20.2657891
19.9081576	19.9081576	20.6234208	20.9810526
20.6234208	20.6234208	20.9810526	20.6234208
22.4115788	22.4115788	22.4115789	21.0889576
21.7502686	21.0889575	21.0889576	21.7502685
21.7502686	21.0889575	21.035005	21.035005
21.0889576	21.0350051	21.0350051	22.0809238
21.7502685	22.4115788	22.0809238	21.0889576
21.0350051	21.0350051	22.0809238	21.7502686
22.4115788	22.0809238	22.4115789	22.0809239
21.7502686	22.0809239	21.4196131	21.4196131
21.4196131	21.4196132	21.4196131	21.4196131
23.8421051	23.8421051	23.8421051	22.9468286
22.9468285	22.9468286	22.9468285	22.6792036
22.6792036	22.9468286	22.6792036	22.6792036
23.3944667	23.8421051	23.3944667	22.9468286
22.6792036	22.6792036	23.3944667	23.8421051
23.3944667	23.8421051	23.3944668	23.3944668
25.2726313	25.2726314	25.2726314	24.8047009
24.8047008	24.8047009	24.8047008	24.3234031
24.3234031	24.8047008	24.3234031	24.3234031
25.0386662	25.2726313	25.0386661	24.8047009
24.3234031	24.3234031	25.0386662	25.2726313
25.0386662	25.2726314	25.0386662	25.0386662
26.7031576	26.7031576	26.7031577	25.9676013
26.662572	26.6625719	26.6625719	25.9676012
25.9676013	25.9676012	25.6201161	25.6201161
25.9676012	25.6201162	25.6201161	26.6828647
26.6625719	26.7031576	26.6828647	25.9676013
25.6201162	25.6201162	26.6828648	26.6625719
26.7031576	26.6828648	26.7031576	26.6828648
26.6625719	26.6828648	26.3150865	26.3150865
26.3150865	26.3150866	26.3150866	26.3150865
28.1336849	28.133685	28.133685	27.4184213
27.4184213	27.4184213	27.4184212	27.0607894
27.0607894	27.4184213	27.0607895	27.0607894
27.7760531	28.1336849	27.7760531	27.4184213
27.0607895	27.0607895	27.7760531	28.1336849
27.7760531	27.7760532	28.133685	27.7760531
29.5642101	29.5642101	29.5642102	28.50844
29.0363248	28.5084399	28.5084399	29.0363248
29.5642101	29.3002673	29.2441093	29.3788885
29.5642101	29.2441093	29.3002674	29.3788886
28.50844	28.7723824	28.8285404	28.6937613
28.7723824	28.5084399	28.8285403	28.6937612
28.5084399	28.3210625	28.3210625	28.3210625
28.3210625	29.0363248	29.5642101	29.3002673
28.3210626	28.3210625	29.0363248	28.7723824
30.9947374	30.9947375	30.9947375	30.3362717
30.3362716	30.3362717	30.3362716	29.9502409
29.9502409	30.3362716	29.9502409	29.9502409
30.6655045	30.9947374	30.6655045	30.3362717
29.9502409	29.9502409	30.6655046	30.9947375
30.6655046	30.9947375	30.6655046	30.6655046
32.4252626	32.4252626	32.4252627	31.6561177
32.3174976	32.3174976	32.3174976	31.6561176
31.3254277	31.3957873	31.2269243	31.3957873
31.3254278	31.2269243	31.916448	31.9868075
32.3174976	32.0853109	31.9164479	32.3174976
31.9868075	32.0853109	31.6561176	31.3254277
32.3713801	32.3174976	32.4252626	32.3713801
31.6561176	32.3713801	32.4252626	32.3713801
32.4252627	32.3713801	32.3713801	31.9868075
34.8094738	34.8094738	34.8094738	33.3335542
34.2418456	34.2418456	34.2418456	33.3335542
32.8794084	32.9760352	32.7441309	32.9760352
32.8794084	32.744131	33.6910732	33.7877
34.2418456	33.9229774	33.6910732	34.2418456
33.7876999	33.9229774	33.3335541	32.8794084
34.5256598	34.2418456	34.8094738	34.5256597
33.3335542	34.8094738	34.5256598	34.5256598
34.8094738	34.5256598	34.5256598	33.7876999
36.0061286	35.9223651	35.4850322	35.4955026
35.1018441	35.162142	35.0364018	35.4955898
35.1634507	35.1634616	35.4872452	35.1546561
35.7837037	36.0068267	35.7839982	36.0042296
35.748366	35.7820898	-0.173919983	0.737071408
0.175726376	0.0549128108	-0.0321115899	-0.307095553
-0.161685947	0.43648901	0.641808716	0.327733454
3.40320327	3.42386653	1.98229465	2.65461666
1.49315737	2.3877709	1.42681685	2.33410554
1.06566667	1.39659962	1.11933627	2.31716531
2.14464863	2.01902943	2.18331621	2.6360134
2.48008695	2.45316558	1.45908611	1.09945244
1.04868545	2.91345489	3.01473882	3.39379143
2.95992435	3.41325426	2.89039936	2.36325047
2.87975735	1.81704173	1.66858071	1.74268945
1.92342557	1.88675625	5.24213821	5.24311161
3.55999801	4.46355069	3.54168856	4.45741024
3.53334884	3.47236989	3.46350169	3.55059462
3.49183959	3.48184031	4.87536503	4.45461334
5.24169484	4.87416979	5.2426117	4.87798913
4.46039707	4.87664144	4.00670702	4.00151115
4.01811432	4.01225574	6.67578977	6.67578979
5.4467565	6.06178309	5.44614125	6.06170618
5.44586101	5.34418351	5.34382792	5.44644052
5.3449642	5.34456325	6.36884058	6.06167114
6.67578977	6.36883619	6.67578978	6.3688502
6.06174359	6.36884526	5.75420144	5.75408321
5.75446101	5.7543277	8.10631603	8.10631605
7.3059864	7.30598638	7.30598638	6.9908881
6.99088809	7.30598639	6.99088811	6.99088811
7.70615118	8.10631602	7.70615117	8.10631604
7.70615119	7.70615119	9.53684202	9.53684203
8.63508706	9.16385794	9.16385793	8.42695379
8.29194842	8.42695381	8.37070158	8.29194844
9.16385792	8.84322028	8.9782256	9.16385794
8.84322029	8.89947252	8.97822562	8.63508705
9.35034998	9.53684201	9.35034997	9.53684203
9.35034999	9.35034999	10.9673683	10.9673683
10.2521052	10.2521052	10.2521051	9.89447354
9.89447353	10.2521052	9.89447355	9.89447354
10.6097368	10.9673683	10.6097368	10.9673683
10.6097368	10.6097368	12.3978945	12.3978946
11.0217293	11.709812	11.0217293	11.709812
11.0217293	10.9945488	10.9945488	11.0217293
10.9945488	10.9945488	12.0538533	11.7098119
12.3978945	12.0538533	12.3978945	12.0538533
11.709812	12.0538533	11.3657706	11.3657706
11.3657706	11.3657706	13.8284213	13.8284214
12.8304837	12.8304837	13.1918771	13.0799681
12.8304837	13.0154581	12.6141891	12.6141891
12.8304837	12.6141891	12.6141891	13.3939846
13.5789369	13.8284213	13.4762498	13.8284213
13.3294525	13.337519	15.2589476	15.2589476
14.4071107	14.9857998	14.9857997	14.1793287
14.0315783	14.1793288	14.1177661	14.0315783
14.9857997	14.6348925	14.7826429	14.9857997
14.6348925	14.6964552	14.7826429	14.4071106
15.1223736	15.2589476	15.1223736	15.2589476
15.1223737	15.1223737	16.6894739	16.6894739
15.9742107	15.9742107	15.9742107	15.6165793
15.6165793	15.9742107	15.6165793	15.6165793
16.3318422	16.6894738	16.3318422	16.6894739
16.3318422	16.3318422	18.1200001	18.1200001
16.9185957	17.5192978	16.9185957	18.1200001
17.7557444	17.9091152	18.1200001	17.7557444
17.8196489	17.9091152	17.2828513	16.9185957
17.1294805	17.2828513	16.9185957	17.2189468
17.1294805	16.8040348	16.8040348	16.8040348
16.8040348	17.5192978	19.5505264	19.5505264
18.7078092	19.2956179	19.2956179	18.4764376
18.3263586	18.4764376	18.4139047	18.3263587
19.2956179	18.9391808	19.0892596	19.2956179
18.9391808	19.0017136	19.0892596	18.7078092
19.4230721	19.5505264	19.4230721	19.5505264
19.4230722	19.4230721	20.9810526	20.9810526
20.2657891	20.2657891	20.2657891	19.9081576
19.9081576	20.2657891	19.9081576	19.9081576
20.6234208	20.9810526	20.6234208	20.9810526
20.6234208	20.6234208	22.4115789	22.4115789
21.0889576	21.7502686	21.0889576	21.7502686
21.0889576	21.0350051	21.0350051	21.0889576
21.0350051	21.0350051	22.0809239	21.7502686
22.4115789	22.0809239	22.4115789	22.0809239
21.7502686	22.0809239	21.4196132	21.4196132
21.4196132	21.4196132	23.8421052	23.8421052
22.9468286	22.9468286	22.9468286	22.6792037
22.6792037	22.9468286	22.6792037	22.6792037
23.3944668	23.8421051	23.3944668	23.8421052
23.3944668	23.3944668	25.2726314	25.2726314
24.8047009	24.8047009	24.8047009	24.3234032
24.3234031	24.8047009	24.3234032	24.3234032
25.0386662	25.2726314	25.0386662	25.2726314
25.0386662	25.0386662	26.7031577	26.7031577
25.9676013	26.662572	26.662572	25.9676013
25.9676013	25.6201162	25.6201162	25.9676013
25.6201162	25.6201162	26.6828648	26.662572
26.7031577	26.6828648	26.7031577	26.6828648
26.662572	26.6828648	26.3150866	26.3150866
26.3150866	26.3150866	28.133685	28.133685
27.4184213	27.4184213	27.4184213	27.0607895
27.0607895	27.4184213	27.0607895	27.0607895
27.7760532	28.133685	27.7760532	28.133685
27.7760532	27.7760532	29.5642102	29.5642102
28.50844	29.0363249	28.50844	29.5642102
29.2441094	29.3788886	29.5642102	29.2441094
29.3002674	29.3788886	28.8285404	28.50844
28.6937613	28.8285404	28.50844	28.7723825
28.6937613	28.3210626	28.3210626	28.3210626
28.3210626	29.0363248	30.9947375	30.9947375
30.3362717	30.3362717	30.3362717	29.9502409
29.9502409	30.3362717	29.9502409	29.9502409
30.6655046	30.9947375	30.6655046	30.9947375
30.6655046	30.6655046	32.4252627	31.6561177
32.3174977	31.2669893	31.3254278	31.205458
31.6476347	31.3170626	32.3713802	32.3174977
32.4252627	32.3713802	31.9868075	31.9857472
34.8094738	33.3335542	34.2418456	33.3335542
32.8794085	32.8794084	34.5256598	34.2418456
34.8094738	34.5256598	33.7877	33.7877
36.0051081	35.495375	35.4951802	35.1634348
35.1634105	35.7832732	36.0035496	35.7826157
-0.0464392475	0.123365932	0.827496744	0.947646907
0.443144499	-0.111188108	0.0839879392	-0.0386986098
0.405664327	0.290538599	0.251545325	0.225634399
0.0379082506	0.255534459	0.156172868	0.530549224
0.340945989	0.781624033	0.550634605	0.887206431
0.676935499	0.705743025	3.44348052	3.46954206
1.63980121	2.4794665	1.55612917	2.42714683
1.52418362	1.17575356	1.13704605	1.59771073
1.27713656	1.22613674	2.91947793	2.40717145
3.43353036	2.90472639	3.45643203	2.95811526
2.45314755	2.93867909	1.97413519	1.94841023
2.0415142	2.00761979	5.24403558	5.24526327
3.60047052	4.47712397	3.57737772	4.46937933
3.568561	3.51032063	3.50094521	3.58885389
3.5348768	3.52252403	4.88047996	4.46642247
5.24356685	4.87921636	5.24464569	4.88378959
4.4732281	4.88212471	4.02894236	4.0234493
4.04332981	4.03609233	6.67578979	6.6757898
5.44811649	6.0619531	5.44734051	6.0618561
5.44704425	5.34570524	5.34532931	5.44772614
5.34668987	5.34619456	6.36885933	6.06181906
6.67578979	6.3688547	6.6757898	6.36887146
6.06190431	6.36886536	5.75470739	5.7545824
5.75503476	5.75487008	8.10631605	8.10631606
7.30598641	7.30598641	7.3059864	6.99088812
6.99088812	7.30598641	6.99088812	6.99088812
7.7061512	8.10631605	7.7061512	8.10631606
7.7061512	7.7061512	9.53684204	9.53684205
8.63508708	9.16385795	9.16385795	8.63508707
8.63508707	8.37070158	8.37070158	8.63508707
8.37070159	8.37070159	9.35035	9.16385795
9.53684204	9.35035	9.35035	9.16385795
9.53684204	9.35035	8.89947252	8.89947252
8.89947253	8.89947253	10.9673683	10.9673683
10.2521052	10.2521052	10.2521052	9.89447356
9.89447355	10.2521052	9.89447356	9.89447356
10.6097368	10.9673683	10.6097368	10.9673683
10.6097368	10.6097368	12.3978946	12.3978946
11.0217294	11.709812	11.0217294	11.709812
11.0217294	10.9945488	10.9945488	11.0217294
10.9945488	10.9945488	12.0538533	11.709812
12.3978946	12.0538533	12.3978946	12.0538533
11.709812	12.0538533	11.3657706	11.3657706
11.3657706	11.3657706	13.8284214	13.8284214
12.8304837	12.8304837	13.3294525	13.8284214
13.476446	13.5789369	13.6450166	13.0799681
12.8304837	13.182459	13.0138884	12.8304837
12.6141891	12.6141891	12.6141891	12.6141891
13.1918989	13.3294525	13.8284214	13.4670061
15.2589476	15.2589476	14.4071107	14.9857998
14.9857998	14.2051154	14.0358761	14.6091059
14.4071107	14.4071107	14.9857998	14.7783451
14.9857998	14.5775893	14.6964552	14.7730924
14.1177661	14.2475802	15.1223737	15.2589476
15.1223737	15.2589476	15.1223737	15.1223737
16.6894739	16.6894739	15.9742108	15.9742107
15.9742107	15.6165793	15.6165793	15.9742107
15.6165793	15.6165793	16.3318422	16.6894739
16.3318422	16.6894739	16.3318422	16.3318422
18.1200001	18.1200001	16.9185957	17.5192978
16.9185957	17.5192978	16.9185957	16.8040348
16.8040348	16.9185957	16.8040348	16.8040348
17.8196489	17.5192978	18.1200001	17.8196489
18.1200001	17.8196489	17.5192978	17.8196489
17.2189468	17.2189468	17.2189468	17.2189468
19.5505264	19.5505264	18.7078092	19.2956179
19.2956179	18.7078092	18.7078092	18.4139047
18.4139047	18.7078092	18.4139047	18.4139047
19.4230722	19.2956179	19.5505264	19.4230722
19.5505264	19.4230722	19.2956179	19.4230722
19.0017136	19.0017136	19.0017136	19.0017136
20.9810527	20.9810527	20.2657891	20.2657891
20.2657891	19.9081576	19.9081576	20.2657891
19.9081576	19.9081576	20.6234208	20.9810527
20.6234208	20.9810527	20.6234208	20.6234208
22.4115789	22.4115789	21.0889576	21.7502687
21.0889576	21.7502686	21.0889576	21.0350051
21.0350051	21.0889576	21.0350051	21.0350051
22.0809239	21.7502686	22.4115789	22.0809239
22.4115789	22.0809239	21.7502686	22.0809239
21.4196132	21.4196132	21.4196132	21.4196132
23.8421052	23.8421052	22.9468286	22.9468286
22.9468286	22.6792037	22.6792037	22.9468286
22.6792037	22.6792037	23.3944668	23.8421052
23.3944668	23.8421052	23.3944668	23.3944668
25.2726314	25.2726314	24.8047009	24.8047009
24.8047009	24.3234032	24.3234032	24.8047009
24.3234032	24.3234032	25.0386663	25.2726314
25.0386662	25.2726314	25.0386663	25.0386663
26.7031577	26.7031577	25.9676013	26.662572
26.662572	25.9676013	25.9676013	25.6201162
25.6201162	25.9676013	25.6201162	25.6201162
26.6828648	26.662572	26.7031577	26.6828648
26.7031577	26.6828648	26.662572	26.6828648
26.3150866	26.3150866	26.3150866	26.3150866
28.133685	28.133685	27.4184214	27.4184214
27.4184214	27.0607895	27.0607895	27.4184214
27.0607895	27.0607895	27.7760532	28.133685
27.7760532	28.133685	27.7760532	27.7760532
29.5642102	29.5642102	28.50844	29.0363249
28.50844	29.0363249	28.50844	28.3210626
28.3210626	28.50844	28.3210626	28.3210626
29.3002674	29.0363249	29.5642102	29.3002674
29.5642102	29.3002674	29.0363249	29.3002674
28.7723825	28.7723825	28.7723825	28.7723825
30.9947375	30.9947375	30.3362717	30.3362717
30.3362717	29.950241	29.950241	30.3362717
29.950241	29.950241	30.6655046	30.9947375
30.6655046	30.9947375	30.6655046	30.6655046
32.4252627	32.4252627	31.6561177	32.3174977
32.3174977	31.6561177	31.6561177	31.3254278
31.3254278	31.6561177	31.3254278	31.3254278
32.3713802	32.3174977	32.4252627	32.3713802
32.4252627	32.3713802	32.3174977	32.3713802
31.9868075	31.9868075	31.9868075	31.9868075
34.8094738	34.8094738	33.3335542	34.2418456
34.2418456	33.3335542	33.3335542	32.8794085
32.8794085	33.3335542	32.8794085	32.8794085
34.5256598	34.2418456	34.8094738	34.5256598
34.8094738	34.5256598	34.2418456	34.5256598
33.7877	33.7877	33.7877	33.7877
36.0061636	36.007012	35.495613	35.495507
35.4954457	35.1634513	35.1634437	35.4955738
35.1634646	35.1634597	35.7837185	36.0056731
35.7835116	36.006698	35.7840764	35.783944
0.271531447	0.424780549	0.344774203	1.05141616
1.10248754	1.15822238	0.197606632	0.376870705
0.260460257	0.663712054	0.575133461	0.53141392
0.999765439	0.788540416	1.07709936	0.640133672
0.308350372	0.607819558	0.385200301	1.13065115
0.711078688	0.675982924	3.49205045	3.50312824
3.51521757	1.78644502	2.57116208	1.71206565
1.74763152	2.54689222	2.52465307	1.67609632
1.36469731	1.3211143	1.72995131	1.40779145
1.38636885	2.9914849	2.50216164	3.48084699
2.9748753	1.76724454	1.45482065	1.43155598
3.49762134	3.0079082	2.53583688	2.99974398
3.50923715	3.02583115	2.55915613	3.01696492
2.09970696	2.07074175	2.12834728	2.15960282
2.14414115	2.11410984	5.24632357	5.24684541
5.2474149	3.64094301	4.49069723	3.62041491
3.6302308	4.48710468	4.48381273	3.61048767
3.55608505	3.54552873	3.62535121	3.56652296
3.56133415	4.88664799	4.48048343	5.24579581
4.88522523	3.63564383	3.57791398	3.57227901
5.246586	4.88805478	4.48546821	4.88735545
5.24713318	4.88959003	4.48892005	4.88883057
4.05575572	4.04957078	4.06187129	4.06854529
4.06524376	4.05883117	6.67578979	6.67578979
6.67578979	5.44947645	6.06212309	5.44878667
5.4491165	6.0620781	6.06203687	5.44845309
5.34754026	5.34711698	5.44895254	5.34795878
5.34775073	6.36888193	6.06199518	6.6757898
6.36887672	5.44929839	5.34841552	5.34818958
6.67578979	6.36888708	6.0620576	6.36888452
6.67578979	6.3688927	6.06210083	6.36888992
5.75531749	5.75517676	5.75545664	5.75560849
5.75553337	5.75538747	8.10631605	8.10631605
8.10631605	7.3059864	7.30598641	7.3059864
7.30598641	6.99088812	6.99088812	7.3059864
6.99088812	6.99088812	7.7061512	8.10631606
7.7061512	7.3059864	6.99088811	6.99088812
7.7061512	8.10631605	7.7061512	8.10631605
7.70615119	7.7061512	9.53684204	9.53684204
9.53684203	8.63508706	9.16385794	9.16385795
9.16385795	8.63508707	8.63508707	8.63508707
8.37070159	8.37070159	8.63508707	8.37070158
8.37070158	9.35035	9.16385795	9.53684204
9.35035	8.63508707	8.37070158	8.37070158
9.35035	9.16385795	9.53684204	9.35035
9.53684204	9.35034999	9.16385795	9.35034999
8.89947252	8.89947253	8.89947252	8.89947252
8.89947252	8.89947252	10.9673683	10.9673683
10.9673683	10.2521052	10.2521052	10.2521052
10.2521052	9.89447356	9.89447356	10.2521052
9.89447355	9.89447356	10.6097368	10.9673683
10.6097368	10.2521052	9.89447355	9.89447355
10.9673683	10.6097368	10.6097368	10.9673683
10.6097368	10.6097368	12.3978946	12.3978946
12.3978946	11.0217293	11.709812	11.0217294
11.0217294	11.709812	11.709812	11.0217294
10.9945488	10.9945488	11.0217294	10.9945488
10.9945488	12.0538533	11.709812	12.3978946
12.0538533	11.0217294	10.9945488	10.9945488
12.3978946	12.0538533	11.709812	12.0538533
12.3978946	12.0538533	11.709812	12.0538533
11.3657706	11.3657706	11.3657706	11.3657706
11.3657706	11.3657706	13.8284214	13.8284214
13.8284214	12.8304837	12.8304837	12.8304837
13.3294525	13.3294525	13.8284214	13.5789369
13.5036209	13.6495457	13.1552841	13.3294525
13.3294525	13.182459	12.8304837	13.0799681
13.0138884	13.0799681	12.8304837	13.0093593
12.6141891	12.6141891	12.8304837	12.6141891
12.6141891	13.8284214	13.5789369	13.4670061
12.6141891	12.6141891	13.8284214	13.3294525
13.5789369	13.0799681	15.2589476	15.2589476
15.2589476	14.4071107	14.9857998	14.9857998
14.9857998	14.2051154	14.1177661	14.0358761
14.4071107	14.6091059	14.4071107	14.9857998
14.5775893	14.7730924	14.6964552	14.9857998
14.7783451	14.4071107	14.2475802	14.9857998
14.4071107	15.1223737	15.2589476	15.1223737
15.1223737	15.2589476	15.1223737	15.2589476
15.1223737	15.1223737	16.6894739	16.6894739
16.6894739	15.9742107	15.9742107	15.9742107
15.9742107	15.6165793	15.6165793	15.9742107
15.6165793	15.6165793	16.3318422	16.6894739
16.3318422	15.9742107	15.6165793	15.6165793
16.6894739	16.3318422	16.3318422	16.6894739
16.3318422	16.3318422	18.1200001	18.1200001
18.1200001	16.9185957	17.5192978	16.9185957
16.9185957	17.5192978	17.5192978	16.9185957
16.8040348	16.8040348	16.9185957	16.8040348
16.8040348	17.8196489	17.5192978	18.1200001
17.8196489	16.9185957	16.8040348	16.8040348
18.1200001	17.8196489	17.5192978	17.8196489
18.1200001	17.8196489	17.5192978	17.8196489
17.2189468	17.2189468	17.2189468	17.2189468
17.2189468	17.2189468	19.5505264	19.5505264
19.5505264	18.7078092	19.2956179	19.2956179
19.2956179	18.7078092	18.7078092	18.7078092
18.4139047	18.4139047	18.7078092	18.4139047
18.4139047	19.4230722	19.2956179	19.5505264
19.4230722	18.7078092	18.4139047	18.4139047
19.4230722	19.2956179	19.5505264	19.4230722
19.5505264	19.4230722	19.2956179	19.4230722
19.0017136	19.0017136	19.0017136	19.0017136
19.0017136	19.0017136	20.9810527	20.9810527
20.9810526	20.2657891	20.2657891	20.2657891
20.2657891	19.9081576	19.9081576	20.2657891
19.9081576	19.9081576	20.6234208	20.9810527
20.6234208	20.2657891	19.9081576	19.9081576
20.9810527	20.6234208	20.6234208	20.9810526
20.6234208	20.6234208	22.4115789	22.4115789
22.4115789	21.0889576	21.7502686	21.0889576
21.0889576	21.7502686	21.7502686	21.0889576
21.0350051	21.0350051	21.0889576	21.0350051
21.0350051	22.0809239	21.7502686	22.4115789
22.0809239	21.0889576	21.0350051	21.0350051
22.4115789	22.0809239	21.7502686	22.0809239
22.4115789	22.0809239	21.7502686	22.0809239
21.4196132	21.4196132	21.4196132	21.4196132
21.4196132	21.4196132	23.8421052	23.8421052
23.8421052	22.9468286	22.9468286	22.9468286
22.9468286	22.6792037	22.6792037	22.9468286
22.6792037	22.6792037	23.3944668	23.8421052
23.3944668	22.9468286	22.6792037	22.6792037
23.3944668	23.8421052	23.3944668	23.8421052
23.3944668	23.3944668	25.2726314	25.2726314
25.2726314	24.8047009	24.8047009	24.8047009
24.8047009	24.3234032	24.3234032	24.8047009
24.3234032	24.3234032	25.0386663	25.2726314
25.0386663	24.8047009	24.3234032	24.3234032
25.0386663	25.2726314	25.0386663	25.2726314
25.0386662	25.0386662	26.7031577	26.7031577
26.7031577	25.9676013	26.662572	26.662572
26.662572	25.9676013	25.9676013	25.9676013
25.6201162	25.6201162	25.9676013	25.6201162
25.6201162	26.6828648	26.662572	26.7031577
26.6828648	25.9676013	25.6201162	25.6201162
26.6828648	26.662572	26.7031577	26.6828648
26.7031577	26.6828648	26.662572	26.6828648
26.3150866	26.3150866	26.3150866	26.3150866
26.3150866	26.3150866	28.133685	28.133685
28.133685	27.4184213	27.4184214	27.4184214
27.4184214	27.0607895	27.0607895	27.4184214
27.0607895	27.0607895	27.7760532	28.133685
27.7760532	27.4184214	27.0607895	27.0607895
28.133685	27.7760532	27.7760532	28.133685
27.7760532	27.7760532	29.5642102	29.5642102
29.5642102	28.50844	29.0363249	28.50844
28.50844	29.0363249	29.0363249	28.50844
28.3210626	28.3210626	28.50844	28.3210626
28.3210626	29.3002674	29.0363249	29.5642102
29.3002674	28.50844	28.3210626	28.3210626
29.5642102	29.3002674	29.0363249	29.3002674
29.5642102	29.3002674	29.0363249	29.3002674
28.7723825	28.7723825	28.7723825	28.7723825
28.7723825	28.7723825	30.9947375	30.9947375
30.9947375	30.3362717	30.3362717	30.3362717
30.3362717	29.950241	29.950241	30.3362717
29.950241	29.950241	30.6655046	30.9947375
30.6655046	30.3362717	29.9502409	29.950241
30.6655046	30.9947375	30.6655046	30.9947375
30.6655046	30.6655046	32.4252627	32.4252627
32.4252627	31.6561177	32.3174977	32.3174977
32.3174977	31.6561177	31.6561177	31.6561177
31.3254278	31.3254278	31.6561177	31.3254278
31.3254278	32.3713802	32.3174977	32.4252627
32.3713802	31.6561177	31.3254278	31.3254278
32.3713802	32.3174977	32.4252627	32.3713802
32.4252627	32.3713802	32.3174977	32.3713802
31.9868075	31.9868075	31.9868075	31.9868075
31.9868075	31.9868075	34.8094738	34.8094738
34.8094738	33.3335542	34.2418456	34.2418456
34.2418456	33.3335542	33.3335542	33.3335542
32.8794085	32.8794085	33.3335542	32.8794085
32.8794085	34.5256598	34.2418456	34.8094738
34.5256598	33.3335542	32.8794085	32.8794085
34.8094738	34.5256598	34.2418456	34.5256598
34.8094738	34.5256598	34.2418456	34.5256598
33.7877	33.7877	33.7877	33.7877
33.7877	33.7877	36.0063207	36.0058002
36.0051081	35.495375	35.4954616	35.4955266
35.4955821	35.1634538	35.1634607	35.4954953
35.1634457	35.1634499	35.7837848	36.0067648
35.7839721	35.4954203	35.1634348	35.1634405
36.0060704	35.7835652	35.7836792	36.0054698
35.7832732	35.7834258	0.713030118	1.3364482
1.25348504	0.941993962	0.561335856	0.832314695
3.5358808	3.55387617	1.91056067	2.64877091
1.85278551	2.61264442	1.56488661	1.82051627
1.59827239	1.88300273	1.60520802	1.56204774
3.05646527	2.59246665	3.52582983	3.04156426
3.54529263	3.08314416	2.63153908	3.0704187
2.21302516	2.18703954	2.25955006	2.23735833
5.24838828	5.24923597	3.67519789	4.50218528
3.65925243	4.49683766	3.65034639	3.59738366
3.58791325	3.66759213	3.61433957	3.60625184
4.8922141	4.49385084	5.24791481	4.89093771
5.24883163	4.89449936	4.49963454	4.89340933
4.07995256	4.07440385	4.08988701	4.08514842
6.67578977	6.67578976	5.45062747	6.06226694
5.45009168	6.06219998	5.44979243	5.34919618
5.34881646	5.45037191	5.34987605	5.34955176
6.3689023	6.06216258	6.67578978	6.36889763
6.67578977	6.36891066	6.062235	6.36890667
5.75586803	5.75574179	5.75609406	5.75598625
8.10631603	8.10631602	7.30598637	7.30598638
7.30598639	6.9908881	6.99088811	7.30598638
6.99088808	6.99088809	7.70615118	8.10631604
7.70615119	8.10631602	7.70615116	7.70615117
9.53684202	9.536842	8.63508703	9.16385791
9.16385793	8.42695381	8.29194844	8.42695379
8.37070155	8.29194842	9.16385794	8.84322029
8.97822562	9.16385792	8.84322028	8.89947249
8.9782256	8.63508705	9.35034998	9.53684203
9.35034999	9.53684201	9.35034996	9.35034997
10.9673683	10.9673683	10.2521051	10.2521052
10.2521052	9.89447354	9.89447354	10.2521051
9.89447352	9.89447353	10.6097368	10.9673683
10.6097368	10.9673683	10.6097367	10.6097368
12.3978945	12.3978945	11.0217293	11.7098119
11.0217293	11.709812	11.0217293	10.9945488
10.9945488	11.0217293	10.9945488	10.9945488